species,wlcent,gflog,excit,j_lo,e_upp,j_up,lande_lower,lande_upper,lande,gamrad,gamqst,gamvw,depth,reference,term_lower,term_upper,error,atom_number,ionization
TiO 1,4732.1221,0.446,0.6686104867817968,79.0,3.287836381526156,80.0,99.0,99.0,99.0,7.2829999999999995,0.0,0.0,0.027999999999999997,_          -0.174038          6 wl:PPN2012   6 gf:PPN2012   6 PPN2012   6 PPN2012   6 PPN2012   6 PPN2012   6 PPN2012   6 PPN2012   6 PPN2012    (48)TiO,"8s2.9s1.3p4.1d1 X,3,2,0,79,2","8s2.11s1.3p4.1d1 C,3,2,0,80,5",0.5,1.0,1.0
C2 1,4732.1543,-0.522,0.2746204099810255,32.0,2.8939183767393746,31.0,99.0,99.0,99.0,6.77,0.0,0.0,0.01,_                             9 wl:BBSB   9 gf:BBSB   9 BBSB   9 BBSB   9 BBSB   9 BBSB   9 BBSB   9 BBSB   9 BBSB    (12)C(12)C,"2sg2.2su2.3sg1.1pu3 a,3,1,f,31,0,g","2sg2.2su1.3sg1.1pu3/2sg2.2su2.3sg1.1pg1.1pu2 d,3,1,f,30,1,g",0.5,1.0,1.0
TiO 1,4732.1582,0.382,0.6013176544570334,84.0,3.220673273867206,83.0,99.0,99.0,99.0,7.2829999999999995,0.0,0.0,0.031,_          0.0965078          6 wl:PPN2012   6 gf:PPN2012   6 PPN2012   6 PPN2012   6 PPN2012   6 PPN2012   6 PPN2012   6 PPN2012   6 PPN2012    (48)TiO,"8s2.9s1.3p4.1d1 X,3,2,0,84,1","8s2.11s1.3p4.1d1 C,3,2,0,83,4",0.5,1.0,1.0
V 1,4732.1584,-6.235,1.9451691077502025,2.5,4.564471210869347,1.5,1.05,1.77,0.51,7.59,-6.06,-7.77,0.001,"_          Kurucz V I 2009   19 wl:K09  19 gf:K09  19 K09  19 K09  19 K09  19 K09  19 K09  19 K09  19 K09   hfs:UBDE,GYDE V",3d4.(3F2).4s b4F,3d3.(a2D).4s.4p.(3P*) x4P*,0.5,1.0,1.0
TiO 1,4732.1591,-0.6920000000000001,0.7895902247883093,99.0,3.408757549397784,100.0,99.0,99.0,99.0,7.2620000000000005,0.0,0.0,0.001,_          -0.242941          4 wl:PPN2012   4 gf:PPN2012   4 PPN2012   4 PPN2012   4 PPN2012   4 PPN2012   4 PPN2012   4 PPN2012   4 PPN2012    (50)TiO,"8s2.9s1.3p4.1d1 X,3,2,0,100,1","8s2.11s1.3p4.1d1 C,3,2,0,101,4",0.5,1.0,1.0
V 1,4732.1698,-5.37,1.945175434415831,2.5,4.564471210869347,1.5,1.05,1.77,0.51,7.59,-6.06,-7.77,0.001,"_          Kurucz V I 2009   19 wl:K09  19 gf:K09  19 K09  19 K09  19 K09  19 K09  19 K09  19 K09  19 K09   hfs:UBDE,GYDE V",3d4.(3F2).4s b4F,3d3.(a2D).4s.4p.(3P*) x4P*,0.5,1.0,1.0
C2 1,4732.1738,-0.536,0.2747596442347844,31.0,2.8940576109931335,30.0,99.0,99.0,99.0,6.77,0.0,0.0,0.009000000000000001,_                             9 wl:BBSB   9 gf:BBSB   9 BBSB   9 BBSB   9 BBSB   9 BBSB   9 BBSB   9 BBSB   9 BBSB    (12)C(12)C,"2sg2.2su2.3sg1.1pu3 a,3,1,e,31,0,g","2sg2.2su1.3sg1.1pu3/2sg2.2su2.3sg1.1pg1.1pu2 d,3,1,e,30,1,g",0.5,1.0,1.0
TiO 1,4732.181,-0.486,0.8173647555577156,100.0,3.4365111640330768,101.0,99.0,99.0,99.0,7.26,0.0,0.0,0.002,_          -0.258814          3 wl:PPN2012   3 gf:PPN2012   3 PPN2012   3 PPN2012   3 PPN2012   3 PPN2012   3 PPN2012   3 PPN2012   3 PPN2012    (46)TiO,"8s2.9s1.3p4.1d1 X,3,2,0,101,1","8s2.11s1.3p4.1d1 C,3,2,0,102,4",0.5,1.0,1.0
V 1,4732.1835,-4.744,1.9451830288198786,2.5,4.564471210869347,1.5,1.05,1.77,0.51,7.59,-6.06,-7.77,0.001,"_          Kurucz V I 2009   19 wl:K09  19 gf:K09  19 K09  19 K09  19 K09  19 K09  19 K09  19 K09  19 K09   hfs:UBDE,GYDE V",3d4.(3F2).4s b4F,3d3.(a2D).4s.4p.(3P*) x4P*,0.5,1.0,1.0
V 1,4732.1841,-5.807,1.9451640477071352,2.5,4.564451917936347,1.5,1.05,1.77,0.51,7.59,-6.06,-7.77,0.001,"_          Kurucz V I 2009   19 wl:K09  19 gf:K09  19 K09  19 K09  19 K09  19 K09  19 K09  19 K09  19 K09   hfs:UBDE,GYDE V",3d4.(3F2).4s b4F,3d3.(a2D).4s.4p.(3P*) x4P*,0.5,1.0,1.0
TiO 1,4732.1921,-1.159,0.4194215046127081,28.0,3.0393892835994696,27.0,99.0,99.0,99.0,7.315,0.0,0.0,0.002,_          1.23594            8 wl:PPN2012   8 gf:PPN2012   8 PPN2012   8 PPN2012   8 PPN2012   8 PPN2012   8 PPN2012   8 PPN2012   8 PPN2012    (49)TiO,"8s2.9s1.3p4.1d1 X,3,2,0,27,3","8s2.11s1.3p4.1d1 C,3,2,0,26,6",0.5,1.0,1.0
V 1,4732.1932,-5.209,1.9451691077502025,2.5,4.564451917936347,1.5,1.05,1.77,0.51,7.59,-6.06,-7.77,0.001,"_          Kurucz V I 2009   19 wl:K09  19 gf:K09  19 K09  19 K09  19 K09  19 K09  19 K09  19 K09  19 K09   hfs:UBDE,GYDE V",3d4.(3F2).4s b4F,3d3.(a2D).4s.4p.(3P*) x4P*,0.5,1.0,1.0
V 1,4732.2047,-4.96,1.945175434415831,2.5,4.564451917936347,1.5,1.05,1.77,0.51,7.59,-6.06,-7.77,0.001,"_          Kurucz V I 2009   19 wl:K09  19 gf:K09  19 K09  19 K09  19 K09  19 K09  19 K09  19 K09  19 K09   hfs:UBDE,GYDE V",3d4.(3F2).4s b4F,3d3.(a2D).4s.4p.(3P*) x4P*,0.5,1.0,1.0
V 1,4732.2051,-5.557,1.9451602534187404,2.5,4.5644364836395415,1.5,1.05,1.77,0.51,7.59,-6.06,-7.77,0.001,"_          Kurucz V I 2009   19 wl:K09  19 gf:K09  19 K09  19 K09  19 K09  19 K09  19 K09  19 K09  19 K09   hfs:UBDE,GYDE V",3d4.(3F2).4s b4F,3d3.(a2D).4s.4p.(3P*) x4P*,0.5,1.0,1.0
V 1,4732.212,-5.2170000000000005,1.9451640477071352,2.5,4.5644364836395415,1.5,1.05,1.77,0.51,7.59,-6.06,-7.77,0.001,"_          Kurucz V I 2009   19 wl:K09  19 gf:K09  19 K09  19 K09  19 K09  19 K09  19 K09  19 K09  19 K09   hfs:UBDE,GYDE V",3d4.(3F2).4s b4F,3d3.(a2D).4s.4p.(3P*) x4P*,0.5,1.0,1.0
TiO 1,4732.2177,-1.1640000000000001,0.43390212737045386,29.0,3.052908520491612,28.0,99.0,99.0,99.0,7.314,0.0,0.0,0.002,_          -0.475235          4 wl:PPN2012   4 gf:PPN2012   4 PPN2012   4 PPN2012   4 PPN2012   4 PPN2012   4 PPN2012   4 PPN2012   4 PPN2012    (50)TiO,"8s2.9s1.3p4.1d1 X,3,2,0,29,3","8s2.11s1.3p4.1d1 C,3,2,0,28,6",0.5,1.0,1.0
V 1,4732.2211,-5.242999999999999,1.9451691077502025,2.5,4.5644364836395415,1.5,1.05,1.77,0.51,7.59,-6.06,-7.77,0.001,"_          Kurucz V I 2009   19 wl:K09  19 gf:K09  19 K09  19 K09  19 K09  19 K09  19 K09  19 K09  19 K09   hfs:UBDE,GYDE V",3d4.(3F2).4s b4F,3d3.(a2D).4s.4p.(3P*) x4P*,0.5,1.0,1.0
TiO 1,4732.2214,-0.449,0.9111411827894064,81.0,3.5304083642715236,81.0,99.0,99.0,99.0,7.385,0.0,0.0,0.001,_                             6 wl:PPN2012   6 gf:PPN2012   6 PPN2012   6 PPN2012   6 PPN2012   6 PPN2012   6 PPN2012   6 PPN2012   6 PPN2012    (48)TiO,"8s2.9s1.3p4.1d1 X,3,2,-,80,4","8s2.3p4.4p1.1d1 B,3,1,+,80,8",0.5,1.0,1.0
V 1,4732.2215,-5.381,1.9451577242650961,2.5,4.564424907978928,1.5,1.05,1.77,0.51,7.59,-6.06,-7.77,0.001,"_          Kurucz V I 2009   19 wl:K09  19 gf:K09  19 K09  19 K09  19 K09  19 K09  19 K09  19 K09  19 K09   hfs:UBDE,GYDE V",3d4.(3F2).4s b4F,3d3.(a2D).4s.4p.(3P*) x4P*,0.5,1.0,1.0
V 1,4732.226,-5.381,1.9451602534187404,2.5,4.564424907978928,1.5,1.05,1.77,0.51,7.59,-6.06,-7.77,0.001,"_          Kurucz V I 2009   19 wl:K09  19 gf:K09  19 K09  19 K09  19 K09  19 K09  19 K09  19 K09  19 K09   hfs:UBDE,GYDE V",3d4.(3F2).4s b4F,3d3.(a2D).4s.4p.(3P*) x4P*,0.5,1.0,1.0
V 1,4732.2329,-5.682,1.9451640477071352,2.5,4.564424907978928,1.5,1.05,1.77,0.51,7.59,-6.06,-7.77,0.001,"_          Kurucz V I 2009   19 wl:K09  19 gf:K09  19 K09  19 K09  19 K09  19 K09  19 K09  19 K09  19 K09   hfs:UBDE,GYDE V",3d4.(3F2).4s b4F,3d3.(a2D).4s.4p.(3P*) x4P*,0.5,1.0,1.0
TiO 1,4732.2342,-0.7440000000000001,0.5229494129596218,48.0,3.1426605570560397,49.0,99.0,99.0,99.0,7.305,0.0,0.0,0.003,_          0.814557           3 wl:PPN2012   3 gf:PPN2012   3 PPN2012   3 PPN2012   3 PPN2012   3 PPN2012   3 PPN2012   3 PPN2012   3 PPN2012    (46)TiO,"8s2.9s1.3p4.1d1 X,3,2,0,47,3","8s2.11s1.3p4.1d1 C,3,2,0,48,6",0.5,1.0,1.0
TiO 1,4732.2368,0.441,0.6738014571614761,78.0,3.2929910245359766,79.0,99.0,99.0,99.0,7.284,0.0,0.0,0.027000000000000003,_          -0.124933          6 wl:PPN2012   6 gf:PPN2012   6 PPN2012   6 PPN2012   6 PPN2012   6 PPN2012   6 PPN2012   6 PPN2012   6 PPN2012    (48)TiO,"8s2.9s1.3p4.1d1 X,3,2,0,79,2","8s2.11s1.3p4.1d1 C,3,2,0,80,5",0.5,1.0,1.0
Fe 1,4732.2611,-1.59,4.606951000453286,2.0,7.22619627392771,1.0,1.84,1.28,2.11,8.48,-5.45,-7.34,0.44299999999999995,_          Kurucz Fe I 2014   5 wl:K14   5 gf:K14   5 K14   5 K14   5 K14   5 K14   5 K14   5 K14   5 K14    Fe,3d6.(5D).4s.4p.(1P*) y5P*,3d6.4s.(4D).4d i5D,0.5,1.0,1.0
TiO 1,4732.2668,-0.648,0.5226894304959467,63.0,3.1418741252914866,62.0,99.0,99.0,99.0,7.2989999999999995,0.0,0.0,0.004,_          -0.103751          2 wl:PPN2012   2 gf:PPN2012   2 PPN2012   2 PPN2012   2 PPN2012   2 PPN2012   2 PPN2012   2 PPN2012   2 PPN2012    (47)TiO,"8s2.9s1.3p4.1d1 X,3,2,0,63,2","8s2.11s1.3p4.1d1 C,3,2,0,62,5",0.5,1.0,1.0
TiO 1,4732.276,-0.8,0.5166895252198735,61.0,3.1358713063867736,60.0,99.0,99.0,99.0,7.3,0.0,0.0,0.003,_          -0.0998352         8 wl:PPN2012   8 gf:PPN2012   8 PPN2012   8 PPN2012   8 PPN2012   8 PPN2012   8 PPN2012   8 PPN2012   8 PPN2012    (49)TiO,"8s2.9s1.3p4.1d1 X,3,2,0,62,2","8s2.11s1.3p4.1d1 C,3,2,0,61,5",0.5,1.0,1.0
Y 1,4732.2799,-0.9640000000000001,1.9002739306858907,2.5,4.519508789487727,1.5,1.15,0.86,1.37,8.11,-5.32,-7.59,0.051,_          Kurucz Y I 2006   32 wl:K06  32 gf:K06  32 K06  32 K06  32 K06  32 K06  32 K06  32 K06  32 K06    Y,4d2.(3F).5s a2F,4d2.(1D).5p w2D*,0.5,1.0,1.0
C2 1,4732.2808,-0.55,0.27503588102674786,30.0,2.8942693760024123,29.0,99.0,99.0,99.0,6.77,0.0,0.0,0.009000000000000001,_                             9 wl:BBSB   9 gf:BBSB   9 BBSB   9 BBSB   9 BBSB   9 BBSB   9 BBSB   9 BBSB   9 BBSB    (12)C(12)C,"2sg2.2su2.3sg1.1pu3 a,3,1,f,31,0,g","2sg2.2su1.3sg1.1pu3/2sg2.2su2.3sg1.1pg1.1pu2 d,3,1,f,30,1,g",0.5,1.0,1.0
Sc 1,4732.2942,-0.863,1.986565320330532,2.5,4.60579224414373,1.5,1.19,1.33,1.09,7.45,-5.28,-7.83,0.303,_          Kurucz ScI 2009   23 wl:K09  23 gf:K09  23 K09  23 K09  23 K09  23 K09  23 K09  23 K09  23 K09    Sc,3d.4s.(1D).4p 2D*,3d3 2P,0.5,1.0,1.0
TiO 1,4732.3072,-0.01,0.42433196074561125,29.0,3.0442142526282168,28.0,99.0,99.0,99.0,7.314,0.0,0.0,0.025,_          1.19657            6 wl:PPN2012   6 gf:PPN2012   6 PPN2012   6 PPN2012   6 PPN2012   6 PPN2012   6 PPN2012   6 PPN2012   6 PPN2012    (48)TiO,"8s2.9s1.3p4.1d1 X,3,2,0,28,3","8s2.11s1.3p4.1d1 C,3,2,0,27,6",0.5,1.0,1.0
Zr 1,4732.33,-0.49,0.6325277005493988,2.0,3.2517298275231035,3.0,1.25,1.0,0.75,0.0,0.0,0.0,0.909,_          Cu 1 - Ba 2 Bell  17 wl:BGHL  17 gf:BGHL  17 BGHL  17 BGHL  17 BGHL  17 BGHL  17 BGHL  17 BGHL  17 BGHL    Zr,4d2.5s2 a1D,4d3.(b2D).5p x1F*,0.5,1.0,1.0
Cr 1,4732.3516,-3.845,3.394956868377384,2.0,6.014152052236031,1.0,1.99,1.5,2.23,7.85,-4.85,-7.43,0.005,_          Kurucz Cr I 2016  10 wl:K16  10 gf:K16  10 K16  10 K16  10 K16  10 K16  10 K16  10 K16  10 K16    Cr,3d4.(5D).4s.4p.(3P*) z7D*,3d4.4s.5s f5D,0.5,1.0,1.0
TiO 1,4732.3627,-0.6779999999999999,0.710745214457946,85.0,3.3237910548873084,86.0,99.0,99.0,99.0,7.277,0.0,0.0,0.002,_          -11.1259           4 wl:PPN2012   4 gf:PPN2012   4 PPN2012   4 PPN2012   4 PPN2012   4 PPN2012   4 PPN2012   4 PPN2012   4 PPN2012    (50)TiO,"8s2.9s1.3p4.1d1 X,3,2,0,84,2","8s2.11s1.3p4.1d1 C,3,2,0,85,5",0.5,1.0,1.0
TiO 1,4732.3656,-1.1320000000000001,0.43893904738477657,30.0,3.057870368074367,29.0,99.0,99.0,99.0,7.314,0.0,0.0,0.002,_          -0.462902          8 wl:PPN2012   8 gf:PPN2012   8 PPN2012   8 PPN2012   8 PPN2012   8 PPN2012   8 PPN2012   8 PPN2012   8 PPN2012    (49)TiO,"8s2.9s1.3p4.1d1 X,3,2,0,30,3","8s2.11s1.3p4.1d1 C,3,2,0,29,6",0.5,1.0,1.0
Ce 2,4732.366,-1.55,0.708720453325901,3.5,3.327907454227514,4.5,1.01,0.95,0.86,0.0,0.0,0.0,0.21,E 0.04     Wisconsin REE ex  11 wl:LSCI  11 gf:LSCI  11 LSCI  11 LSCI  11 LSCI  11 LSCI  11 LSCI  11 LSCI  11 LSCI    Ce+,4f.(2F*).5d2.(3F)* 4f.(2F*).5d2.(3F)*,4f.5d.(3H*).6p 4f.5d.(3H*).6p,1.096478196143185,1.0,2.0
Ti 1,4732.3688,-2.134,3.334299087575494,3.0,5.953484724650935,4.0,1.06,1.09,1.14,8.15,-4.26,-7.29,0.013000000000000001,_          Kurucz TiI 2016   22 wl:K16  22 gf:K16  22 K16  22 K16  22 K16  22 K16  22 K16  22 K16  22 K16    Ti,3d2.(1D).4s.4p.(3P*) x3F*,3d2.4s.(4F).5d h5G,0.5,1.0,1.0
TiO 1,4732.3836,-0.5579999999999999,0.6133125552349601,86.0,3.231638188323069,85.0,99.0,99.0,99.0,7.281000000000001,0.0,0.0,0.003,_          -1.53961           3 wl:PPN2012   3 gf:PPN2012   3 PPN2012   3 PPN2012   3 PPN2012   3 PPN2012   3 PPN2012   3 PPN2012   3 PPN2012    (46)TiO,"8s2.9s1.3p4.1d1 X,3,2,0,85,1","8s2.11s1.3p4.1d1 C,3,2,0,84,4",0.5,1.0,1.0
TiO 1,4732.3906,-0.9359999999999999,0.4592954176432489,31.0,3.078639952866167,30.0,99.0,99.0,99.0,7.314,0.0,0.0,0.002,_          0.308755           3 wl:PPN2012   3 gf:PPN2012   3 PPN2012   3 PPN2012   3 PPN2012   3 PPN2012   3 PPN2012   3 PPN2012   3 PPN2012    (46)TiO,"8s2.9s1.3p4.1d1 X,3,2,0,32,3","8s2.11s1.3p4.1d1 C,3,2,0,31,6",0.5,1.0,1.0
TiO 1,4732.3915,-0.797,0.7099827116435048,101.0,3.3291755645992387,100.0,99.0,99.0,99.0,7.263999999999999,0.0,0.0,0.001,_          0.0356828          3 wl:PPN2012   3 gf:PPN2012   3 PPN2012   3 PPN2012   3 PPN2012   3 PPN2012   3 PPN2012   3 PPN2012   3 PPN2012    (46)TiO,"8s2.9s1.3p4.1d1 X,3,2,0,102,0","8s2.11s1.3p4.1d1 C,3,2,0,101,3",0.5,1.0,1.0
Y 1,4732.4002,-0.599,2.003444157021523,2.5,4.622612436309318,1.5,1.22,1.35,1.13,7.83,-4.98,-7.46,0.081,_          Kurucz Y I 2006   32 wl:K06  32 gf:K06  32 K06  32 K06  32 K06  32 K06  32 K06  32 K06  32 K06    Y,4d2.(1D).5s b2D,5s2.6p 2P*,0.5,1.0,1.0
TiO 1,4732.404,-0.996,0.45385080039238523,30.0,3.0731873758298263,29.0,99.0,99.0,99.0,7.314,0.0,0.0,0.002,_          0.307759           2 wl:PPN2012   2 gf:PPN2012   2 PPN2012   2 PPN2012   2 PPN2012   2 PPN2012   2 PPN2012   2 PPN2012   2 PPN2012    (47)TiO,"8s2.9s1.3p4.1d1 X,3,2,0,31,3","8s2.11s1.3p4.1d1 C,3,2,0,30,6",0.5,1.0,1.0
TiO 1,4732.4128,-0.013999999999999999,0.4486372524903466,29.0,3.0679683850215187,28.0,99.0,99.0,99.0,7.314,0.0,0.0,0.022000000000000002,_          0.306698           6 wl:PPN2012   6 gf:PPN2012   6 PPN2012   6 PPN2012   6 PPN2012   6 PPN2012   6 PPN2012   6 PPN2012   6 PPN2012    (48)TiO,"8s2.9s1.3p4.1d1 X,3,2,0,30,3","8s2.11s1.3p4.1d1 C,3,2,0,29,6",0.5,1.0,1.0
TiO 1,4732.4145,-0.971,0.49820806879238405,45.0,3.1178122641200643,46.0,99.0,99.0,99.0,7.306,0.0,0.0,0.002,_          0.801944           4 wl:PPN2012   4 gf:PPN2012   4 PPN2012   4 PPN2012   4 PPN2012   4 PPN2012   4 PPN2012   4 PPN2012   4 PPN2012    (50)TiO,"8s2.9s1.3p4.1d1 X,3,2,0,44,3","8s2.11s1.3p4.1d1 C,3,2,0,45,6",0.5,1.0,1.0
TiO 1,4732.4199,0.28,0.9978891938349106,78.0,3.6170466617006864,77.0,99.0,99.0,99.0,7.272,0.0,0.0,0.005,_                             6 wl:PPN2012   6 gf:PPN2012   6 PPN2012   6 PPN2012   6 PPN2012   6 PPN2012   6 PPN2012   6 PPN2012   6 PPN2012    (48)TiO,"8s2.9s1.3p4.1d1 X,3,2,0,77,5","8s2.11s1.3p4.1d1 C,3,2,0,76,9",0.5,1.0,1.0
TiO 1,4732.4246,-1.1640000000000001,0.4436388171709187,28.0,3.062962771017057,27.0,99.0,99.0,99.0,7.315,0.0,0.0,0.001,_          0.305598           8 wl:PPN2012   8 gf:PPN2012   8 PPN2012   8 PPN2012   8 PPN2012   8 PPN2012   8 PPN2012   8 PPN2012   8 PPN2012    (49)TiO,"8s2.9s1.3p4.1d1 X,3,2,0,29,3","8s2.11s1.3p4.1d1 C,3,2,0,28,6",0.5,1.0,1.0
TiO 1,4732.4318,-0.992,0.4294531032252753,30.0,3.0492455313615547,29.0,99.0,99.0,99.0,7.314,0.0,0.0,0.002,_          1.15903            2 wl:PPN2012   2 gf:PPN2012   2 PPN2012   2 PPN2012   2 PPN2012   2 PPN2012   2 PPN2012   2 PPN2012   2 PPN2012    (47)TiO,"8s2.9s1.3p4.1d1 X,3,2,0,29,3","8s2.11s1.3p4.1d1 C,3,2,0,28,6",0.5,1.0,1.0
TiO 1,4732.434,-1.198,0.4388563871203232,27.0,3.058174501310761,26.0,99.0,99.0,99.0,7.315,0.0,0.0,0.001,_          0.304482           4 wl:PPN2012   4 gf:PPN2012   4 PPN2012   4 PPN2012   4 PPN2012   4 PPN2012   4 PPN2012   4 PPN2012   4 PPN2012    (50)TiO,"8s2.9s1.3p4.1d1 X,3,2,0,28,3","8s2.11s1.3p4.1d1 C,3,2,0,27,6",0.5,1.0,1.0
Ni 1,4732.4566,-0.55,4.1054061573528084,3.0,6.724543192622842,4.0,1.19,1.27,1.39,8.34,-4.82,-7.278,0.609,ND-        Kurucz NiI 2008   33 wl:K08  40 gf:FMW  33 K08  33 K08  33 K08  33 K08  33 K08  25 BPM  33 K08    Ni,3d8.(3F).4s.4p.(3P*) 3F*,3d8.4s.(2F).5s g3F,0.6,1.0,1.0
Ce 2,4732.4671,-2.94,0.7922518307506599,4.5,3.4113830387634114,3.5,1.15,1.36,0.8,0.0,0.0,0.0,0.008,C 0.004    Ce 2: DREAM data  15 wl:PQWB  15 gf:PQWB  15 PQWB  15 PQWB  15 PQWB  15 PQWB  15 PQWB  15 PQWB  15 PQWB    Ce+,4f.(2F*).5d2.(3F) 4G*,4f2.(3P).5d 4D,0.004,1.0,2.0
TiO 1,4732.4757,-0.449,0.9111411827894064,81.0,3.530267766191592,81.0,99.0,99.0,99.0,7.385,0.0,0.0,0.001,_                             6 wl:PPN2012   6 gf:PPN2012   6 PPN2012   6 PPN2012   6 PPN2012   6 PPN2012   6 PPN2012   6 PPN2012   6 PPN2012    (48)TiO,"8s2.9s1.3p4.1d1 X,3,2,+,80,4","8s2.3p4.4p1.1d1 B,3,1,-,80,8",0.5,1.0,1.0
Ce 2,4732.4786,-2.15,1.3193706462949057,2.5,3.9384955311135865,1.5,1.53,0.78,2.09,0.0,0.0,0.0,0.006999999999999999,C-0.062    Ce 2: DREAM data  15 wl:PQWB  15 gf:PQWB  15 PQWB  15 PQWB  15 PQWB  15 PQWB  15 PQWB  15 PQWB  15 PQWB    Ce+,4f.5d.(3P*).6s 4P*,4f2.(3P).5d 4f2.(3P).5d,0.062,1.0,2.0
TiO 1,4732.4839,0.122,0.9542306507781744,65.0,3.573352646765054,64.0,99.0,99.0,99.0,7.374,0.0,0.0,0.004,_                             6 wl:PPN2012   6 gf:PPN2012   6 PPN2012   6 PPN2012   6 PPN2012   6 PPN2012   6 PPN2012   6 PPN2012   6 PPN2012    (48)TiO,"8s2.9s1.3p4.1d1 a,1,2,0,65,2","8s2.11s1.3p4.1d1 f,1,2,0,64,5",0.5,1.0,1.0
TiO 1,4732.4844,-0.773,0.5212106709727206,65.0,3.1383633887559226,64.0,99.0,99.0,99.0,7.297999999999999,0.0,0.0,0.003,_          -3.56042           8 wl:PPN2012   8 gf:PPN2012   8 PPN2012   8 PPN2012   8 PPN2012   8 PPN2012   8 PPN2012   8 PPN2012   8 PPN2012    (49)TiO,"8s2.9s1.3p4.1d1 X,3,2,0,64,2","8s2.11s1.3p4.1d1 C,3,2,0,63,5",0.5,1.0,1.0
TiO 1,4732.4863,-0.5,0.6847445503985844,80.0,3.3037615317702067,81.0,99.0,99.0,99.0,7.282,0.0,0.0,0.003,_          -0.187366          3 wl:PPN2012   3 gf:PPN2012   3 PPN2012   3 PPN2012   3 PPN2012   3 PPN2012   3 PPN2012   3 PPN2012   3 PPN2012    (46)TiO,"8s2.9s1.3p4.1d1 X,3,2,0,80,2","8s2.11s1.3p4.1d1 C,3,2,0,81,5",0.5,1.0,1.0
Cr 1,4732.4931,-1.545,4.535051200514187,4.0,7.154168026360032,5.0,1.07,1.2,1.46,8.39,-5.97,-7.72,0.022000000000000002,_      A   Kurucz Cr I 2016  10 wl:K16  10 gf:K16  10 K16  10 K16  10 K16  10 K16  10 K16  10 K16  10 K16    Cr,3d5.(2F2).4s d3F,3d5.(a2F).4p t3G*,0.5,1.0,1.0
TiO 1,4732.4964,-0.01,0.9202818681542126,53.0,3.5393968466355155,52.0,99.0,99.0,99.0,7.284,0.0,0.0,0.003,_                             6 wl:PPN2012   6 gf:PPN2012   6 PPN2012   6 PPN2012   6 PPN2012   6 PPN2012   6 PPN2012   6 PPN2012   6 PPN2012    (48)TiO,"8s2.9s1.3p4.1d1 X,3,2,0,53,6","8s2.11s1.3p4.1d1 C,3,2,0,52,10",0.5,1.0,1.0
TiO 1,4732.5002,-0.688,0.785226613356768,100.0,3.404262378334307,101.0,99.0,99.0,99.0,7.261,0.0,0.0,0.001,_          -0.139459          4 wl:PPN2012   4 gf:PPN2012   4 PPN2012   4 PPN2012   4 PPN2012   4 PPN2012   4 PPN2012   4 PPN2012   4 PPN2012    (50)TiO,"8s2.9s1.3p4.1d1 X,3,2,0,100,1","8s2.11s1.3p4.1d1 C,3,2,0,101,4",0.5,1.0,1.0
TiO 1,4732.5153,0.017,0.4441940184071899,31.0,3.0630493119868913,30.0,99.0,99.0,99.0,7.314,0.0,0.0,0.024,_          -0.450607          6 wl:PPN2012   6 gf:PPN2012   6 PPN2012   6 PPN2012   6 PPN2012   6 PPN2012   6 PPN2012   6 PPN2012   6 PPN2012    (48)TiO,"8s2.9s1.3p4.1d1 X,3,2,0,31,3","8s2.11s1.3p4.1d1 C,3,2,0,30,6",0.5,1.0,1.0
TiO 1,4732.547,-0.9620000000000001,0.5168491424756966,46.0,3.135752157573004,47.0,99.0,99.0,99.0,7.306,0.0,0.0,0.002,_          -0.332507          4 wl:PPN2012   4 gf:PPN2012   4 PPN2012   4 PPN2012   4 PPN2012   4 PPN2012   4 PPN2012   4 PPN2012   4 PPN2012    (50)TiO,"8s2.9s1.3p4.1d1 X,3,2,0,46,3","8s2.11s1.3p4.1d1 C,3,2,0,47,6",0.5,1.0,1.0
TiO 1,4732.5584,-0.655,0.5286879843442674,62.0,3.147715144818502,61.0,99.0,99.0,99.0,7.3,0.0,0.0,0.004,_          -0.0968033         2 wl:PPN2012   2 gf:PPN2012   2 PPN2012   2 PPN2012   2 PPN2012   2 PPN2012   2 PPN2012   2 PPN2012   2 PPN2012    (47)TiO,"8s2.9s1.3p4.1d1 X,3,2,0,63,2","8s2.11s1.3p4.1d1 C,3,2,0,62,5",0.5,1.0,1.0
TiO 1,4732.5607,-0.9329999999999999,0.43480065324793965,31.0,3.0545019653974985,30.0,99.0,99.0,99.0,7.314,0.0,0.0,0.003,_          1.12326            3 wl:PPN2012   3 gf:PPN2012   3 PPN2012   3 PPN2012   3 PPN2012   3 PPN2012   3 PPN2012   3 PPN2012   3 PPN2012    (46)TiO,"8s2.9s1.3p4.1d1 X,3,2,0,30,3","8s2.11s1.3p4.1d1 C,3,2,0,29,6",0.5,1.0,1.0
TiO 1,4732.5644,-0.48200000000000004,0.8131128166928355,101.0,3.4321022859710393,102.0,99.0,99.0,99.0,7.26,0.0,0.0,0.002,_          -0.158972          3 wl:PPN2012   3 gf:PPN2012   3 PPN2012   3 PPN2012   3 PPN2012   3 PPN2012   3 PPN2012   3 PPN2012   3 PPN2012    (46)TiO,"8s2.9s1.3p4.1d1 X,3,2,0,101,1","8s2.11s1.3p4.1d1 C,3,2,0,102,4",0.5,1.0,1.0