species,wlcent,gflog,excit,j_lo,e_upp,j_up,lande_lower,lande_upper,lande,gamrad,gamqst,gamvw,depth,reference,term_lower,term_upper,error,atom_number,ionization
V 1,4731.8911,-2.697,1.955316392669856,4.5,4.574766427038275,4.5,1.31,1.17,1.24,7.46,-6.12,-7.8,0.568,"_          Kurucz V I 2009   19 wl:K09  19 gf:K09  19 K09  19 K09  19 K09  19 K09  19 K09  19 K09  19 K09   hfs:UBDE,GYDE V",3d4.(3F2).4s b4F,3d3.(2H).4s.4p.(3P*) w4G*,0.5,1.0,1.0
V 1,4731.8933,-2.7739999999999996,1.9553290838162931,4.5,4.57477789111311,4.5,1.31,1.17,1.24,7.46,-6.12,-7.8,0.568,"_          Kurucz V I 2009   19 wl:K09  19 gf:K09  19 K09  19 K09  19 K09  19 K09  19 K09  19 K09  19 K09   hfs:UBDE,GYDE V",3d4.(3F2).4s b4F,3d3.(2H).4s.4p.(3P*) w4G*,0.5,1.0,1.0
V 1,4731.8964,-2.989,1.9553438933567282,4.5,4.57479099289521,4.5,1.31,1.17,1.24,7.46,-6.12,-7.8,0.568,"_          Kurucz V I 2009   19 wl:K09  19 gf:K09  19 K09  19 K09  19 K09  19 K09  19 K09  19 K09  19 K09   hfs:UBDE,GYDE V",3d4.(3F2).4s b4F,3d3.(2H).4s.4p.(3P*) w4G*,0.5,1.0,1.0
V 1,4731.8968,-2.8569999999999998,1.955286789582947,4.5,4.5747336725210355,4.5,1.31,1.17,1.24,7.46,-6.12,-7.8,0.568,"_          Kurucz V I 2009   19 wl:K09  19 gf:K09  19 K09  19 K09  19 K09  19 K09  19 K09  19 K09  19 K09   hfs:UBDE,GYDE V",3d4.(3F2).4s b4F,3d3.(2H).4s.4p.(3P*) w4G*,0.5,1.0,1.0
V 1,4731.8985,-2.843,1.955291017692049,4.5,4.574736947935564,4.5,1.31,1.17,1.24,7.46,-6.12,-7.8,0.568,"_          Kurucz V I 2009   19 wl:K09  19 gf:K09  19 K09  19 K09  19 K09  19 K09  19 K09  19 K09  19 K09   hfs:UBDE,GYDE V",3d4.(3F2).4s b4F,3d3.(2H).4s.4p.(3P*) w4G*,0.5,1.0,1.0
V 1,4731.9011,-2.705,1.9552973604756232,4.5,4.574741861181342,4.5,1.31,1.17,1.24,7.46,-6.12,-7.8,0.568,"_          Kurucz V I 2009   19 wl:K09  19 gf:K09  19 K09  19 K09  19 K09  19 K09  19 K09  19 K09  19 K09   hfs:UBDE,GYDE V",3d4.(3F2).4s b4F,3d3.(2H).4s.4p.(3P*) w4G*,0.5,1.0,1.0
V 1,4731.9045,-3.053,1.955291017692049,4.5,4.5747336725210355,4.5,1.31,1.17,1.24,7.46,-6.12,-7.8,0.568,"_          Kurucz V I 2009   19 wl:K09  19 gf:K09  19 K09  19 K09  19 K09  19 K09  19 K09  19 K09  19 K09   hfs:UBDE,GYDE V",3d4.(3F2).4s b4F,3d3.(2H).4s.4p.(3P*) w4G*,0.5,1.0,1.0
V 1,4731.9046,-2.5380000000000003,1.9553058185535903,4.5,4.574748412010399,4.5,1.31,1.17,1.24,7.46,-6.12,-7.8,0.568,"_          Kurucz V I 2009   19 wl:K09  19 gf:K09  19 K09  19 K09  19 K09  19 K09  19 K09  19 K09  19 K09   hfs:UBDE,GYDE V",3d4.(3F2).4s b4F,3d3.(2H).4s.4p.(3P*) w4G*,0.5,1.0,1.0
V 1,4731.9089,-2.369,1.955316392669856,4.5,4.574756600670705,4.5,1.31,1.17,1.24,7.46,-6.12,-7.8,0.568,"_          Kurucz V I 2009   19 wl:K09  19 gf:K09  19 K09  19 K09  19 K09  19 K09  19 K09  19 K09  19 K09   hfs:UBDE,GYDE V",3d4.(3F2).4s b4F,3d3.(2H).4s.4p.(3P*) w4G*,0.5,1.0,1.0
V 1,4731.91,-2.832,1.9552973604756232,4.5,4.574736947935564,4.5,1.31,1.17,1.24,7.46,-6.12,-7.8,0.568,"_          Kurucz V I 2009   19 wl:K09  19 gf:K09  19 K09  19 K09  19 K09  19 K09  19 K09  19 K09  19 K09   hfs:UBDE,GYDE V",3d4.(3F2).4s b4F,3d3.(2H).4s.4p.(3P*) w4G*,0.5,1.0,1.0
V 1,4731.9141,-2.21,1.9553290838162931,4.5,4.574766427038275,4.5,1.31,1.17,1.24,7.46,-6.12,-7.8,0.568,"_          Kurucz V I 2009   19 wl:K09  19 gf:K09  19 K09  19 K09  19 K09  19 K09  19 K09  19 K09  19 K09   hfs:UBDE,GYDE V",3d4.(3F2).4s b4F,3d3.(2H).4s.4p.(3P*) w4G*,0.5,1.0,1.0
TiO 1,4731.9155,0.516,1.2156295843157015,115.0,3.8289075107643082,114.0,99.0,99.0,99.0,7.235,0.0,0.0,0.004,_          -11.1518           6 wl:PPN2012   6 gf:PPN2012   6 PPN2012   6 PPN2012   6 PPN2012   6 PPN2012   6 PPN2012   6 PPN2012   6 PPN2012    (48)TiO,"8s2.9s1.3p4.1d1 X,3,2,0,114,3","8s2.11s1.3p4.1d1 C,3,2,0,113,7",0.5,1.0,1.0
V 1,4731.9157,-3.489,2.3589642558518062,2.5,4.978400712958729,2.5,0.86,1.07,0.97,7.99,-5.45,-7.73,0.001,_          Kurucz V I 2009   19 wl:K09  19 gf:K09  19 K09  19 K09  19 K09  19 K09  19 K09  19 K09  19 K09    V,3d4.(3F2).4s a2F,3d3.(a2D).4s.4p.(3P*) 2D*,0.5,1.0,1.0
V 1,4731.9164,-2.7289999999999996,1.9553058185535903,4.5,4.574741861181342,4.5,1.31,1.17,1.24,7.46,-6.12,-7.8,0.568,"_          Kurucz V I 2009   19 wl:K09  19 gf:K09  19 K09  19 K09  19 K09  19 K09  19 K09  19 K09  19 K09   hfs:UBDE,GYDE V",3d4.(3F2).4s b4F,3d3.(2H).4s.4p.(3P*) w4G*,0.5,1.0,1.0
V 1,4731.9201,-2.062,1.9553438933567282,4.5,4.57477789111311,4.5,1.31,1.17,1.24,7.46,-6.12,-7.8,0.568,"_          Kurucz V I 2009   19 wl:K09  19 gf:K09  19 K09  19 K09  19 K09  19 K09  19 K09  19 K09  19 K09   hfs:UBDE,GYDE V",3d4.(3F2).4s b4F,3d3.(2H).4s.4p.(3P*) w4G*,0.5,1.0,1.0
V 1,4731.9237,-2.6860000000000004,1.955316392669856,4.5,4.574748412010399,4.5,1.31,1.17,1.24,7.46,-6.12,-7.8,0.568,"_          Kurucz V I 2009   19 wl:K09  19 gf:K09  19 K09  19 K09  19 K09  19 K09  19 K09  19 K09  19 K09   hfs:UBDE,GYDE V",3d4.(3F2).4s b4F,3d3.(2H).4s.4p.(3P*) w4G*,0.5,1.0,1.0
TiO 1,4731.9242,-0.583,0.5360399372937523,66.0,3.153384446232021,65.0,99.0,99.0,99.0,7.297000000000001,0.0,0.0,0.004,_          -3.77360           3 wl:PPN2012   3 gf:PPN2012   3 PPN2012   3 PPN2012   3 PPN2012   3 PPN2012   3 PPN2012   3 PPN2012   3 PPN2012    (46)TiO,"8s2.9s1.3p4.1d1 X,3,2,0,65,2","8s2.11s1.3p4.1d1 C,3,2,0,64,5",0.5,1.0,1.0
V 1,4731.927,-1.926,1.9553608226549875,4.5,4.57479099289521,4.5,1.31,1.17,1.24,7.46,-6.12,-7.8,0.568,"_          Kurucz V I 2009   19 wl:K09  19 gf:K09  19 K09  19 K09  19 K09  19 K09  19 K09  19 K09  19 K09   hfs:UBDE,GYDE V",3d4.(3F2).4s b4F,3d3.(2H).4s.4p.(3P*) w4G*,0.5,1.0,1.0
CH 1,4731.931,-2.6830000000000003,0.9943006944106932,14.5,3.6137288445763853,15.5,99.0,99.0,99.0,6.27,0.0,0.0,0.004,_                            37 wl:JLIY  37 gf:JLIY  37 JLIY  37 JLIY  37 JLIY  37 JLIY  37 JLIY  37 JLIY  37 JLIY    (12)CH,"1s2.2s2.3s2.1p1 X,2,1,f,14,2","1s2.2s2.3s1.1p2 A,2,2,f,15,1",0.5,1.0,1.0
V 1,4731.9318,-2.697,1.9553290838162931,4.5,4.574756600670705,4.5,1.31,1.17,1.24,7.46,-6.12,-7.8,0.568,"_          Kurucz V I 2009   19 wl:K09  19 gf:K09  19 K09  19 K09  19 K09  19 K09  19 K09  19 K09  19 K09   hfs:UBDE,GYDE V",3d4.(3F2).4s b4F,3d3.(2H).4s.4p.(3P*) w4G*,0.5,1.0,1.0
Mn 1,4731.9357,-3.5439999999999996,3.7723005035990136,1.5,6.39172587379103,0.5,1.21,2.66,0.85,7.3,-6.16,-7.82,0.095,"_          Kurucz MnI 2007   39 wl:K07  39 gf:K07  39 K07  39 K07  39 K07  39 K07  39 K07  39 K07  39 K07   hfs:BBAOKb,BPPN Mn",3d5.4s2 b4D,3d5.(4P).4s.4p.(3P*) x4P*,0.5,1.0,1.0
TiO 1,4731.9371,-0.517,0.7306726737836903,86.0,3.3436889067866966,87.0,99.0,99.0,99.0,7.276,0.0,0.0,0.002,_          -11.6052           2 wl:PPN2012   2 gf:PPN2012   2 PPN2012   2 PPN2012   2 PPN2012   2 PPN2012   2 PPN2012   2 PPN2012   2 PPN2012    (47)TiO,"8s2.9s1.3p4.1d1 X,3,2,0,85,2","8s2.11s1.3p4.1d1 C,3,2,0,86,5",0.5,1.0,1.0
V 1,4731.9408,-2.7739999999999996,1.9553438933567282,4.5,4.574766427038275,4.5,1.31,1.17,1.24,7.46,-6.12,-7.8,0.568,"_          Kurucz V I 2009   19 wl:K09  19 gf:K09  19 K09  19 K09  19 K09  19 K09  19 K09  19 K09  19 K09   hfs:UBDE,GYDE V",3d4.(3F2).4s b4F,3d3.(2H).4s.4p.(3P*) w4G*,0.5,1.0,1.0
TiO 1,4731.9432,-0.669,0.7886897771557628,100.0,3.408033853637151,101.0,99.0,99.0,99.0,7.261,0.0,0.0,0.001,_          -0.139459          8 wl:PPN2012   8 gf:PPN2012   8 PPN2012   8 PPN2012   8 PPN2012   8 PPN2012   8 PPN2012   8 PPN2012   8 PPN2012    (49)TiO,"8s2.9s1.3p4.1d1 X,3,2,0,100,1","8s2.11s1.3p4.1d1 C,3,2,0,101,4",0.5,1.0,1.0
Mn 1,4731.9449,-3.113,3.7722966060317815,1.5,6.391716866339083,0.5,1.21,2.66,0.85,7.3,-6.16,-7.82,0.095,"_          Kurucz MnI 2007   39 wl:K07  39 gf:K07  39 K07  39 K07  39 K07  39 K07  39 K07  39 K07  39 K07   hfs:BBAOKb,BPPN Mn",3d5.4s2 b4D,3d5.(4P).4s.4p.(3P*) x4P*,0.5,1.0,1.0
Mn 1,4731.946,-3.0,3.7723062319169047,1.5,6.39172587379103,0.5,1.21,2.66,0.85,7.3,-6.16,-7.82,0.095,"_          Kurucz MnI 2007   39 wl:K07  39 gf:K07  39 K07  39 K07  39 K07  39 K07  39 K07  39 K07  39 K07   hfs:BBAOKb,BPPN Mn",3d5.4s2 b4D,3d5.(4P).4s.4p.(3P*) x4P*,0.5,1.0,1.0
V 1,4731.9507,-2.989,1.9553608226549875,4.5,4.57477789111311,4.5,1.31,1.17,1.24,7.46,-6.12,-7.8,0.568,"_          Kurucz V I 2009   19 wl:K09  19 gf:K09  19 K09  19 K09  19 K09  19 K09  19 K09  19 K09  19 K09   hfs:UBDE,GYDE V",3d4.(3F2).4s b4F,3d3.(2H).4s.4p.(3P*) w4G*,0.5,1.0,1.0
Mn 1,4731.952,-3.0,3.7723005035990136,1.5,6.391716866339083,0.5,1.21,2.66,0.85,7.3,-6.16,-7.82,0.095,"_          Kurucz MnI 2007   39 wl:K07  39 gf:K07  39 K07  39 K07  39 K07  39 K07  39 K07  39 K07  39 K07   hfs:BBAOKb,BPPN Mn",3d5.4s2 b4D,3d5.(4P).4s.4p.(3P*) x4P*,0.5,1.0,1.0
TiO 1,4731.9528,-0.7929999999999999,0.5105916104357003,62.0,3.1299483333052303,61.0,99.0,99.0,99.0,7.3,0.0,0.0,0.003,_          -0.107023          8 wl:PPN2012   8 gf:PPN2012   8 PPN2012   8 PPN2012   8 PPN2012   8 PPN2012   8 PPN2012   8 PPN2012   8 PPN2012    (49)TiO,"8s2.9s1.3p4.1d1 X,3,2,0,62,2","8s2.11s1.3p4.1d1 C,3,2,0,61,5",0.5,1.0,1.0
Mn 1,4731.9594,-2.636,3.7723136496434715,1.5,6.39172587379103,0.5,1.21,2.66,0.85,7.3,-6.16,-7.82,0.095,"_          Kurucz MnI 2007   39 wl:K07  39 gf:K07  39 K07  39 K07  39 K07  39 K07  39 K07  39 K07  39 K07   hfs:BBAOKb,BPPN Mn",3d5.4s2 b4D,3d5.(4P).4s.4p.(3P*) x4P*,0.5,1.0,1.0
Mn 1,4731.9623,-3.097,3.7723062319169047,1.5,6.391716866339083,0.5,1.21,2.66,0.85,7.3,-6.16,-7.82,0.095,"_          Kurucz MnI 2007   39 wl:K07  39 gf:K07  39 K07  39 K07  39 K07  39 K07  39 K07  39 K07  39 K07   hfs:BBAOKb,BPPN Mn",3d5.4s2 b4D,3d5.(4P).4s.4p.(3P*) x4P*,0.5,1.0,1.0
TiO 1,4731.9898,-0.789,0.5340998449701595,48.0,3.1532934418310776,49.0,99.0,99.0,99.0,7.305,0.0,0.0,0.002,_          -0.364587          2 wl:PPN2012   2 gf:PPN2012   2 PPN2012   2 PPN2012   2 PPN2012   2 PPN2012   2 PPN2012   2 PPN2012   2 PPN2012    (47)TiO,"8s2.9s1.3p4.1d1 X,3,2,0,48,3","8s2.11s1.3p4.1d1 C,3,2,0,49,6",0.5,1.0,1.0
TiO 1,4731.9967,-0.747,0.5937756337328269,85.0,3.212370672083619,84.0,99.0,99.0,99.0,7.282,0.0,0.0,0.002,_          -1.43963           8 wl:PPN2012   8 gf:PPN2012   8 PPN2012   8 PPN2012   8 PPN2012   8 PPN2012   8 PPN2012   8 PPN2012   8 PPN2012    (49)TiO,"8s2.9s1.3p4.1d1 X,3,2,0,84,1","8s2.11s1.3p4.1d1 C,3,2,0,83,4",0.5,1.0,1.0
TiO 1,4732.0009,0.040999999999999995,0.89759272282192,39.0,3.516981991543286,38.0,99.0,99.0,99.0,7.377999999999999,0.0,0.0,0.004,_                             6 wl:PPN2012   6 gf:PPN2012   6 PPN2012   6 PPN2012   6 PPN2012   6 PPN2012   6 PPN2012   6 PPN2012   6 PPN2012    (48)TiO,"8s2.9s1.3p4.1d1 a,1,2,0,39,3","8s2.11s1.3p4.1d1 f,1,2,0,38,6",0.5,1.0,1.0
TiO 1,4732.0016,0.25,1.041956016853916,61.0,3.661344975614788,62.0,99.0,99.0,99.0,7.367999999999999,0.0,0.0,0.004,_                             6 wl:PPN2012   6 gf:PPN2012   6 PPN2012   6 PPN2012   6 PPN2012   6 PPN2012   6 PPN2012   6 PPN2012   6 PPN2012    (48)TiO,"8s2.9s1.3p4.1d1 a,1,2,0,61,3","8s2.11s1.3p4.1d1 f,1,2,0,62,6",0.5,1.0,1.0
Co 1,4732.0044,-5.669,0.513635362227272,3.5,3.133022684148769,3.5,1.24,1.55,1.39,4.31,-6.28,-7.83,0.85,"_          Kurucz CoI 2008   12 wl:K08  12 gf:K08  12 K08  12 K08  12 K08  12 K08  12 K08  12 K08  12 K08   hfs:CGOA,P Co",3p6.3d8.(3F).4s b4F,3p6.3d7.(4F).4s.4p.(3P*) z6D*,0.5,1.0,1.0
TiO 1,4732.0075,-0.518,0.8180439533898768,103.0,3.434980951067901,104.0,99.0,99.0,99.0,7.257000000000001,0.0,0.0,0.002,_          -4.42766           2 wl:PPN2012   2 gf:PPN2012   2 PPN2012   2 PPN2012   2 PPN2012   2 PPN2012   2 PPN2012   2 PPN2012   2 PPN2012    (47)TiO,"8s2.9s1.3p4.1d1 X,3,2,0,102,1","8s2.11s1.3p4.1d1 C,3,2,0,103,4",0.5,1.0,1.0
TiO 1,4732.0125,0.376,0.6062629129541665,83.0,3.2256171437413275,82.0,99.0,99.0,99.0,7.2829999999999995,0.0,0.0,0.03,_          -0.0517199         6 wl:PPN2012   6 gf:PPN2012   6 PPN2012   6 PPN2012   6 PPN2012   6 PPN2012   6 PPN2012   6 PPN2012   6 PPN2012    (48)TiO,"8s2.9s1.3p4.1d1 X,3,2,0,84,1","8s2.11s1.3p4.1d1 C,3,2,0,83,4",0.5,1.0,1.0
Co 1,4732.0168,-5.465,0.5136187970706007,3.5,3.1329992467960004,3.5,1.24,1.55,1.39,4.31,-6.28,-7.83,0.85,"_          Kurucz CoI 2008   12 wl:K08  12 gf:K08  12 K08  12 K08  12 K08  12 K08  12 K08  12 K08  12 K08   hfs:CGOA,P Co",3p6.3d8.(3F).4s b4F,3p6.3d7.(4F).4s.4p.(3P*) z6D*,0.5,1.0,1.0
TiO 1,4732.0272,-0.005,1.0186286752635656,84.0,3.638003462630667,83.0,99.0,99.0,99.0,7.369,0.0,0.0,0.003,_                             6 wl:PPN2012   6 gf:PPN2012   6 PPN2012   6 PPN2012   6 PPN2012   6 PPN2012   6 PPN2012   6 PPN2012   6 PPN2012    (48)TiO,"8s2.9s1.3p4.1d1 a,1,2,0,84,1","8s2.11s1.3p4.1d1 f,1,2,0,83,4",0.5,1.0,1.0
Co 1,4732.0283,-5.4,0.513604931545845,3.5,3.1329790589450632,3.5,1.24,1.55,1.39,4.31,-6.28,-7.83,0.85,"_          Kurucz CoI 2008   12 wl:K08  12 gf:K08  12 K08  12 K08  12 K08  12 K08  12 K08  12 K08  12 K08   hfs:CGOA,P Co",3p6.3d8.(3F).4s b4F,3p6.3d7.(4F).4s.4p.(3P*) z6D*,0.5,1.0,1.0
Co 1,4732.0387,-5.407,0.5135937988807698,3.5,3.1329621659741735,3.5,1.24,1.55,1.39,4.31,-6.28,-7.83,0.85,"_          Kurucz CoI 2008   12 wl:K08  12 gf:K08  12 K08  12 K08  12 K08  12 K08  12 K08  12 K08  12 K08   hfs:CGOA,P Co",3p6.3d8.(3F).4s b4F,3p6.3d7.(4F).4s.4p.(3P*) z6D*,0.5,1.0,1.0
Co 1,4732.0391,-4.766,0.513654586720995,3.5,3.133022684148769,3.5,1.24,1.55,1.39,4.31,-6.28,-7.83,0.85,"_          Kurucz CoI 2008   12 wl:K08  12 gf:K08  12 K08  12 K08  12 K08  12 K08  12 K08  12 K08  12 K08   hfs:CGOA,P Co",3p6.3d8.(3F).4s b4F,3p6.3d7.(4F).4s.4p.(3P*) z6D*,0.5,1.0,1.0
TiO 1,4732.0448,-0.797,0.5149481795648254,47.0,3.1347601600090456,48.0,99.0,99.0,99.0,7.305,0.0,0.0,0.003,_          0.807421           2 wl:PPN2012   2 gf:PPN2012   2 PPN2012   2 PPN2012   2 PPN2012   2 PPN2012   2 PPN2012   2 PPN2012   2 PPN2012    (47)TiO,"8s2.9s1.3p4.1d1 X,3,2,0,46,3","8s2.11s1.3p4.1d1 C,3,2,0,47,6",0.5,1.0,1.0
Co 1,4732.0468,-4.953,0.513635362227272,3.5,3.1329992467960004,3.5,1.24,1.55,1.39,4.31,-6.28,-7.83,0.85,"_          Kurucz CoI 2008   12 wl:K08  12 gf:K08  12 K08  12 K08  12 K08  12 K08  12 K08  12 K08  12 K08   hfs:CGOA,P Co",3p6.3d8.(3F).4s b4F,3p6.3d7.(4F).4s.4p.(3P*) z6D*,0.5,1.0,1.0
Co 1,4732.048,-5.473,0.5135854261039305,3.5,3.132948606194449,3.5,1.24,1.55,1.39,4.31,-6.28,-7.83,0.85,"_          Kurucz CoI 2008   12 wl:K08  12 gf:K08  12 K08  12 K08  12 K08  12 K08  12 K08  12 K08  12 K08   hfs:CGOA,P Co",3p6.3d8.(3F).4s b4F,3p6.3d7.(4F).4s.4p.(3P*) z6D*,0.5,1.0,1.0
Co 1,4732.0533,-5.172000000000001,0.5136187970706007,3.5,3.1329790589450632,3.5,1.24,1.55,1.39,4.31,-6.28,-7.83,0.85,"_          Kurucz CoI 2008   12 wl:K08  12 gf:K08  12 K08  12 K08  12 K08  12 K08  12 K08  12 K08  12 K08   hfs:CGOA,P Co",3p6.3d8.(3F).4s b4F,3p6.3d7.(4F).4s.4p.(3P*) z6D*,0.5,1.0,1.0
Co 1,4732.0563,-5.611000000000001,0.5135798330527984,3.5,3.1329384096100648,3.5,1.24,1.55,1.39,4.31,-6.28,-7.83,0.85,"_          Kurucz CoI 2008   12 wl:K08  12 gf:K08  12 K08  12 K08  12 K08  12 K08  12 K08  12 K08  12 K08   hfs:CGOA,P Co",3p6.3d8.(3F).4s b4F,3p6.3d7.(4F).4s.4p.(3P*) z6D*,0.5,1.0,1.0
Fe 1,4732.057,-1.795,4.7331407528122105,3.0,7.352498975890529,4.0,1.32,1.15,0.88,8.49,-4.02,-7.34,0.298,_          Kurucz Fe I 2014   5 wl:K14   5 gf:K14   5 K14   5 K14   5 K14   5 K14   5 K14   5 K14   5 K14    Fe,3d7.(4F).4p y3D*,3d6.4s.(4D).4d 3F,0.5,1.0,1.0
Co 1,4732.0588,-5.435,0.513604931545845,3.5,3.1329621659741735,3.5,1.24,1.55,1.39,4.31,-6.28,-7.83,0.85,"_          Kurucz CoI 2008   12 wl:K08  12 gf:K08  12 K08  12 K08  12 K08  12 K08  12 K08  12 K08  12 K08   hfs:CGOA,P Co",3p6.3d8.(3F).4s b4F,3p6.3d7.(4F).4s.4p.(3P*) z6D*,0.5,1.0,1.0
Co 1,4732.0632,-5.766,0.5135937988807698,3.5,3.132948606194449,3.5,1.24,1.55,1.39,4.31,-6.28,-7.83,0.85,"_          Kurucz CoI 2008   12 wl:K08  12 gf:K08  12 K08  12 K08  12 K08  12 K08  12 K08  12 K08  12 K08   hfs:CGOA,P Co",3p6.3d8.(3F).4s b4F,3p6.3d7.(4F).4s.4p.(3P*) z6D*,0.5,1.0,1.0
Co 1,4732.0636,-5.891,0.5135770332416512,3.5,3.1329315992820823,3.5,1.24,1.55,1.39,4.31,-6.28,-7.83,0.85,"_          Kurucz CoI 2008   12 wl:K08  12 gf:K08  12 K08  12 K08  12 K08  12 K08  12 K08  12 K08  12 K08   hfs:CGOA,P Co",3p6.3d8.(3F).4s b4F,3p6.3d7.(4F).4s.4p.(3P*) z6D*,0.5,1.0,1.0
Co 1,4732.0665,-6.212999999999999,0.5135854261039305,3.5,3.1329384096100648,3.5,1.24,1.55,1.39,4.31,-6.28,-7.83,0.85,"_          Kurucz CoI 2008   12 wl:K08  12 gf:K08  12 K08  12 K08  12 K08  12 K08  12 K08  12 K08  12 K08   hfs:CGOA,P Co",3p6.3d8.(3F).4s b4F,3p6.3d7.(4F).4s.4p.(3P*) z6D*,0.5,1.0,1.0
Co 1,4732.0687,-6.912000000000001,0.5135798330527984,3.5,3.1329315992820823,3.5,1.24,1.55,1.39,4.31,-6.28,-7.83,0.85,"_          Kurucz CoI 2008   12 wl:K08  12 gf:K08  12 K08  12 K08  12 K08  12 K08  12 K08  12 K08  12 K08   hfs:CGOA,P Co",3p6.3d8.(3F).4s b4F,3p6.3d7.(4F).4s.4p.(3P*) z6D*,0.5,1.0,1.0
TiO 1,4732.074,0.16,0.6809652516928802,102.0,3.300281543315615,101.0,99.0,99.0,99.0,7.263,0.0,0.0,0.013999999999999999,_          -0.0588133         6 wl:PPN2012   6 gf:PPN2012   6 PPN2012   6 PPN2012   6 PPN2012   6 PPN2012   6 PPN2012   6 PPN2012   6 PPN2012    (48)TiO,"8s2.9s1.3p4.1d1 X,3,2,0,101,0","8s2.11s1.3p4.1d1 C,3,2,0,100,3",0.5,1.0,1.0
Co 1,4732.0748,-5.891,0.5135798330527984,3.5,3.1329281903365724,3.5,1.24,1.55,1.39,4.31,-6.28,-7.83,0.85,"_          Kurucz CoI 2008   12 wl:K08  12 gf:K08  12 K08  12 K08  12 K08  12 K08  12 K08  12 K08  12 K08   hfs:CGOA,P Co",3p6.3d8.(3F).4s b4F,3p6.3d7.(4F).4s.4p.(3P*) z6D*,0.5,1.0,1.0
Co 1,4732.0788,-5.611000000000001,0.5135854261039305,3.5,3.1329315992820823,3.5,1.24,1.55,1.39,4.31,-6.28,-7.83,0.85,"_          Kurucz CoI 2008   12 wl:K08  12 gf:K08  12 K08  12 K08  12 K08  12 K08  12 K08  12 K08  12 K08   hfs:CGOA,P Co",3p6.3d8.(3F).4s b4F,3p6.3d7.(4F).4s.4p.(3P*) z6D*,0.5,1.0,1.0
Co 1,4732.0815,-5.669,0.513654586720995,3.5,3.1329992467960004,3.5,1.24,1.55,1.39,4.31,-6.28,-7.83,0.85,"_          Kurucz CoI 2008   12 wl:K08  12 gf:K08  12 K08  12 K08  12 K08  12 K08  12 K08  12 K08  12 K08   hfs:CGOA,P Co",3p6.3d8.(3F).4s b4F,3p6.3d7.(4F).4s.4p.(3P*) z6D*,0.5,1.0,1.0
Co 1,4732.0816,-5.473,0.5135937988807698,3.5,3.1329384096100648,3.5,1.24,1.55,1.39,4.31,-6.28,-7.83,0.85,"_          Kurucz CoI 2008   12 wl:K08  12 gf:K08  12 K08  12 K08  12 K08  12 K08  12 K08  12 K08  12 K08   hfs:CGOA,P Co",3p6.3d8.(3F).4s b4F,3p6.3d7.(4F).4s.4p.(3P*) z6D*,0.5,1.0,1.0
TiO 1,4732.0826,-1.193,0.41472273909856544,27.0,3.034773971848644,26.0,99.0,99.0,99.0,7.315,0.0,0.0,0.002,_          1.27719            4 wl:PPN2012   4 gf:PPN2012   4 PPN2012   4 PPN2012   4 PPN2012   4 PPN2012   4 PPN2012   4 PPN2012   4 PPN2012    (50)TiO,"8s2.9s1.3p4.1d1 X,3,2,0,26,3","8s2.11s1.3p4.1d1 C,3,2,0,25,6",0.5,1.0,1.0
Co 1,4732.0832,-5.465,0.513635362227272,3.5,3.1329790589450632,3.5,1.24,1.55,1.39,4.31,-6.28,-7.83,0.85,"_          Kurucz CoI 2008   12 wl:K08  12 gf:K08  12 K08  12 K08  12 K08  12 K08  12 K08  12 K08  12 K08   hfs:CGOA,P Co",3p6.3d8.(3F).4s b4F,3p6.3d7.(4F).4s.4p.(3P*) z6D*,0.5,1.0,1.0
Co 1,4732.0833,-5.407,0.513604931545845,3.5,3.132948606194449,3.5,1.24,1.55,1.39,4.31,-6.28,-7.83,0.85,"_          Kurucz CoI 2008   12 wl:K08  12 gf:K08  12 K08  12 K08  12 K08  12 K08  12 K08  12 K08  12 K08   hfs:CGOA,P Co",3p6.3d8.(3F).4s b4F,3p6.3d7.(4F).4s.4p.(3P*) z6D*,0.5,1.0,1.0
Co 1,4732.0838,-5.4,0.5136187970706007,3.5,3.1329621659741735,3.5,1.24,1.55,1.39,4.31,-6.28,-7.83,0.85,"_          Kurucz CoI 2008   12 wl:K08  12 gf:K08  12 K08  12 K08  12 K08  12 K08  12 K08  12 K08  12 K08   hfs:CGOA,P Co",3p6.3d8.(3F).4s b4F,3p6.3d7.(4F).4s.4p.(3P*) z6D*,0.5,1.0,1.0
TiO 1,4732.1141,-0.736,0.5423438394236024,49.0,3.1614569333451037,50.0,99.0,99.0,99.0,7.303999999999999,0.0,0.0,0.003,_          -0.385831          3 wl:PPN2012   3 gf:PPN2012   3 PPN2012   3 PPN2012   3 PPN2012   3 PPN2012   3 PPN2012   3 PPN2012   3 PPN2012    (46)TiO,"8s2.9s1.3p4.1d1 X,3,2,0,49,3","8s2.11s1.3p4.1d1 C,3,2,0,50,6",0.5,1.0,1.0
TiO 1,4732.1212,0.33899999999999997,1.3700757196290791,138.0,3.9869625656992262,137.0,99.0,99.0,99.0,7.199,0.0,0.0,0.002,_          -4.40490           6 wl:PPN2012   6 gf:PPN2012   6 PPN2012   6 PPN2012   6 PPN2012   6 PPN2012   6 PPN2012   6 PPN2012   6 PPN2012    (48)TiO,"8s2.9s1.3p4.1d1 X,3,2,0,138,1","8s2.11s1.3p4.1d1 C,3,2,0,137,5",0.5,1.0,1.0