species,wlcent,gflog,excit,j_lo,e_upp,j_up,lande_lower,lande_upper,lande,gamrad,gamqst,gamvw,depth,reference,term_lower,term_upper,error,atom_number,ionization
TiO 1,4890.7387,-0.578,0.7964319083746862,111.0,3.3307409890764963,112.0,99.0,99.0,99.0,7.249,0.0,0.0,0.002,_          -0.124249          4 wl:PPN2012   4 gf:PPN2012   4 PPN2012   4 PPN2012   4 PPN2012   4 PPN2012   4 PPN2012   4 PPN2012   4 PPN2012    (50)TiO,"8s2.9s1.3p4.1d1 X,3,2,0,110,0","8s2.11s1.3p4.1d1 C,3,2,0,111,2",0.5,1.0,1.0
TiO 1,4890.7485,-0.629,0.5591170167815092,67.0,3.0935501684697275,68.0,99.0,99.0,99.0,7.297000000000001,0.0,0.0,0.003,_          0.124918           3 wl:PPN2012   3 gf:PPN2012   3 PPN2012   3 PPN2012   3 PPN2012   3 PPN2012   3 PPN2012   3 PPN2012   3 PPN2012    (46)TiO,"8s2.9s1.3p4.1d1 X,3,2,0,67,2","8s2.11s1.3p4.1d1 C,3,2,0,68,4",0.5,1.0,1.0
CH 1,4890.749,-3.438,0.7283589302841817,5.5,3.2627272258387032,4.5,99.0,99.0,99.0,6.27,0.0,0.0,0.001,_                            37 wl:JLIY  37 gf:JLIY  37 JLIY  37 JLIY  37 JLIY  37 JLIY  37 JLIY  37 JLIY  37 JLIY    (12)CH,"1s2.2s2.3s2.1p1 X,2,1,f,6,2","1s2.2s2.3s1.1p2 A,2,2,f,5,1",0.5,1.0,1.0
Fe 1,4890.7548,-0.39399999999999996,2.875503499825926,2.0,5.409868571791314,2.0,1.5,2.01,1.76,8.18,-5.41,-7.2589999999999995,0.9620000000000001,E 0.021    Kurucz Fe I 2014   5 wl:K14  35 gf:BWL   5 K14   5 K14   5 K14   5 K14   5 K14  25 BPM   5 K14    Fe,3d6.(5D).4s.4p.(3P*) z7F*,3d6.(5D).4s\ (6D).5s e7D,1.0495424286523223,1.0,1.0
Mo 1,4890.755,-1.569,2.917894564830345,2.0,5.45225976077993,3.0,0.67,99.0,99.0,0.0,0.0,0.0,0.002,_          Cu 1 - Ba 2 Bell  17 wl:WBb  17 gf:WBb  17 WBb  17 WBb  17 WBb  17 WBb  17 WBb  17 WBb  17 WBb    Mo,4d4.5s2 a3F,4d4.5s.(4H).5p y3G*,0.5,1.0,1.0
TiO 1,4890.7563,-0.66,0.5785304996166408,93.0,3.1129110448098727,92.0,99.0,99.0,99.0,7.276,0.0,0.0,0.003,_          0.0313679          4 wl:PPN2012   4 gf:PPN2012   4 PPN2012   4 PPN2012   4 PPN2012   4 PPN2012   4 PPN2012   4 PPN2012   4 PPN2012    (50)TiO,"8s2.9s1.3p4.1d1 X,3,2,0,93,0","8s2.11s1.3p4.1d1 C,3,2,0,92,2",0.5,1.0,1.0
TiO 1,4890.7591,-0.552,0.6732814674372863,92.0,3.207611662647926,93.0,99.0,99.0,99.0,7.274,0.0,0.0,0.003,_          -0.0630668         8 wl:PPN2012   8 gf:PPN2012   8 PPN2012   8 PPN2012   8 PPN2012   8 PPN2012   8 PPN2012   8 PPN2012   8 PPN2012    (49)TiO,"8s2.9s1.3p4.1d1 X,3,2,0,91,1","8s2.11s1.3p4.1d1 C,3,2,0,92,3",0.5,1.0,1.0
TiO 1,4890.7598,-0.795,0.4193913020622044,49.0,2.9537657968265996,48.0,99.0,99.0,99.0,7.312,0.0,0.0,0.004,_          0.0232331          2 wl:PPN2012   2 gf:PPN2012   2 PPN2012   2 PPN2012   2 PPN2012   2 PPN2012   2 PPN2012   2 PPN2012   2 PPN2012    (47)TiO,"8s2.9s1.3p4.1d1 X,3,2,0,49,2","8s2.11s1.3p4.1d1 C,3,2,0,48,4",0.5,1.0,1.0
TiO 1,4890.7787,0.311,0.5517919064107766,65.0,3.086158478584953,66.0,99.0,99.0,99.0,7.2989999999999995,0.0,0.0,0.032,_          0.0267320          6 wl:PPN2012   6 gf:PPN2012   6 PPN2012   6 PPN2012   6 PPN2012   6 PPN2012   6 PPN2012   6 PPN2012   6 PPN2012    (48)TiO,"8s2.9s1.3p4.1d1 X,3,2,0,66,2","8s2.11s1.3p4.1d1 C,3,2,0,67,4",0.5,1.0,1.0
TiO 1,4890.7972,-0.506,0.5057955173265436,73.0,3.040175467395628,72.0,99.0,99.0,99.0,7.296,0.0,0.0,0.006,_          0.0709946          2 wl:PPN2012   2 gf:PPN2012   2 PPN2012   2 PPN2012   2 PPN2012   2 PPN2012   2 PPN2012   2 PPN2012   2 PPN2012    (47)TiO,"8s2.9s1.3p4.1d1 X,3,2,0,74,1","8s2.11s1.3p4.1d1 C,3,2,0,73,3",0.5,1.0,1.0
TiO 1,4890.7979,-0.162,0.9501062916524912,73.0,3.4844490340639145,72.0,99.0,99.0,99.0,7.28,0.0,0.0,0.002,_                             6 wl:PPN2012   6 gf:PPN2012   6 PPN2012   6 PPN2012   6 PPN2012   6 PPN2012   6 PPN2012   6 PPN2012   6 PPN2012    (48)TiO,"8s2.9s1.3p4.1d1 X,3,2,0,72,5","8s2.11s1.3p4.1d1 C,3,2,0,71,8",0.5,1.0,1.0
TiO 1,4890.8187,0.185,0.41851565126915186,47.0,2.952855876801366,46.0,99.0,99.0,99.0,7.313,0.0,0.0,0.04,_          0.0156698          6 wl:PPN2012   6 gf:PPN2012   6 PPN2012   6 PPN2012   6 PPN2012   6 PPN2012   6 PPN2012   6 PPN2012   6 PPN2012    (48)TiO,"8s2.9s1.3p4.1d1 X,3,2,0,48,2","8s2.11s1.3p4.1d1 C,3,2,0,47,4",0.5,1.0,1.0
Fe 1,4890.8214,-1.1540000000000001,4.7331407528122105,3.0,7.267471357170701,3.0,1.32,1.51,1.42,8.42,-4.14,-7.38,0.509,_          Kurucz Fe I 2014   5 wl:K14   5 gf:K14   5 K14   5 K14   5 K14   5 K14   5 K14   5 K14   5 K14    Fe,3d7.(4F).4p y3D*,3d7.(4F).5d 5P,0.5,1.0,1.0
V 1,4890.8413,-6.921,1.376298669376796,4.5,3.9106189126238724,3.5,1.13,0.95,1.44,8.55,-5.9,-7.69,0.017,"_          Kurucz V I 2009   19 wl:K09  19 gf:K09  19 K09  19 K09  19 K09  19 K09  19 K09  19 K09  19 K09   hfs:LGB,LWDF V",3d3.4s2 a2G,3d3.(4F).4s.4p.(1P*) x4G*,0.5,1.0,1.0
V 1,4890.8433,-6.523,1.376291254997803,4.5,3.9106104882696076,3.5,1.13,0.95,1.44,8.55,-5.9,-7.69,0.017,"_          Kurucz V I 2009   19 wl:K09  19 gf:K09  19 K09  19 K09  19 K09  19 K09  19 K09  19 K09  19 K09   hfs:LGB,LWDF V",3d3.4s2 a2G,3d3.(4F).4s.4p.(1P*) x4G*,0.5,1.0,1.0
V 1,4890.8453,-6.319,1.376285076245322,4.5,3.9106032674299467,3.5,1.13,0.95,1.44,8.55,-5.9,-7.69,0.017,"_          Kurucz V I 2009   19 wl:K09  19 gf:K09  19 K09  19 K09  19 K09  19 K09  19 K09  19 K09  19 K09   hfs:LGB,LWDF V",3d3.4s2 a2G,3d3.(4F).4s.4p.(1P*) x4G*,0.5,1.0,1.0
V 1,4890.8474,-6.222,1.3762801333673216,4.5,3.9105972499809067,3.5,1.13,0.95,1.44,8.55,-5.9,-7.69,0.017,"_          Kurucz V I 2009   19 wl:K09  19 gf:K09  19 K09  19 K09  19 K09  19 K09  19 K09  19 K09  19 K09   hfs:LGB,LWDF V",3d3.4s2 a2G,3d3.(4F).4s.4p.(1P*) x4G*,0.5,1.0,1.0
V 1,4890.8495,-6.222,1.3762764261158331,4.5,3.9105924361704556,3.5,1.13,0.95,1.44,8.55,-5.9,-7.69,0.017,"_          Kurucz V I 2009   19 wl:K09  19 gf:K09  19 K09  19 K09  19 K09  19 K09  19 K09  19 K09  19 K09   hfs:LGB,LWDF V",3d3.4s2 a2G,3d3.(4F).4s.4p.(1P*) x4G*,0.5,1.0,1.0
V 1,4890.8517,-6.377000000000001,1.3762739546148406,4.5,3.910588825626641,3.5,1.13,0.95,1.44,8.55,-5.9,-7.69,0.017,"_          Kurucz V I 2009   19 wl:K09  19 gf:K09  19 K09  19 K09  19 K09  19 K09  19 K09  19 K09  19 K09   hfs:LGB,LWDF V",3d3.4s2 a2G,3d3.(4F).4s.4p.(1P*) x4G*,0.5,1.0,1.0
V 1,4890.8564,-5.678,1.3762739546148406,4.5,3.9105864187214157,3.5,1.13,0.95,1.44,8.55,-5.9,-7.69,0.017,"_          Kurucz V I 2009   19 wl:K09  19 gf:K09  19 K09  19 K09  19 K09  19 K09  19 K09  19 K09  19 K09   hfs:LGB,LWDF V",3d3.4s2 a2G,3d3.(4F).4s.4p.(1P*) x4G*,0.5,1.0,1.0
V 1,4890.8565,-5.482,1.3762764261158331,4.5,3.910588825626641,3.5,1.13,0.95,1.44,8.55,-5.9,-7.69,0.017,"_          Kurucz V I 2009   19 wl:K09  19 gf:K09  19 K09  19 K09  19 K09  19 K09  19 K09  19 K09  19 K09   hfs:LGB,LWDF V",3d3.4s2 a2G,3d3.(4F).4s.4p.(1P*) x4G*,0.5,1.0,1.0
V 1,4890.8567,-5.377000000000001,1.3762801333673216,4.5,3.9105924361704556,3.5,1.13,0.95,1.44,8.55,-5.9,-7.69,0.017,"_          Kurucz V I 2009   19 wl:K09  19 gf:K09  19 K09  19 K09  19 K09  19 K09  19 K09  19 K09  19 K09   hfs:LGB,LWDF V",3d3.4s2 a2G,3d3.(4F).4s.4p.(1P*) x4G*,0.5,1.0,1.0
V 1,4890.8569,-5.33,1.376285076245322,4.5,3.9105972499809067,3.5,1.13,0.95,1.44,8.55,-5.9,-7.69,0.017,"_          Kurucz V I 2009   19 wl:K09  19 gf:K09  19 K09  19 K09  19 K09  19 K09  19 K09  19 K09  19 K09   hfs:LGB,LWDF V",3d3.4s2 a2G,3d3.(4F).4s.4p.(1P*) x4G*,0.5,1.0,1.0
V 1,4890.8572,-5.336,1.376291254997803,4.5,3.9106032674299467,3.5,1.13,0.95,1.44,8.55,-5.9,-7.69,0.017,"_          Kurucz V I 2009   19 wl:K09  19 gf:K09  19 K09  19 K09  19 K09  19 K09  19 K09  19 K09  19 K09   hfs:LGB,LWDF V",3d3.4s2 a2G,3d3.(4F).4s.4p.(1P*) x4G*,0.5,1.0,1.0
V 1,4890.8576,-5.409,1.376298669376796,4.5,3.9106104882696076,3.5,1.13,0.95,1.44,8.55,-5.9,-7.69,0.017,"_          Kurucz V I 2009   19 wl:K09  19 gf:K09  19 K09  19 K09  19 K09  19 K09  19 K09  19 K09  19 K09   hfs:LGB,LWDF V",3d3.4s2 a2G,3d3.(4F).4s.4p.(1P*) x4G*,0.5,1.0,1.0
V 1,4890.858,-5.62,1.376307319506285,4.5,3.9106189126238724,3.5,1.13,0.95,1.44,8.55,-5.9,-7.69,0.017,"_          Kurucz V I 2009   19 wl:K09  19 gf:K09  19 K09  19 K09  19 K09  19 K09  19 K09  19 K09  19 K09   hfs:LGB,LWDF V",3d3.4s2 a2G,3d3.(4F).4s.4p.(1P*) x4G*,0.5,1.0,1.0
V 1,4890.8587,-5.745,1.3762739546148406,4.5,3.910585215206811,3.5,1.13,0.95,1.44,8.55,-5.9,-7.69,0.017,"_          Kurucz V I 2009   19 wl:K09  19 gf:K09  19 K09  19 K09  19 K09  19 K09  19 K09  19 K09  19 K09   hfs:LGB,LWDF V",3d3.4s2 a2G,3d3.(4F).4s.4p.(1P*) x4G*,0.5,1.0,1.0
V 1,4890.8611,-5.482,1.3762764261158331,4.5,3.9105864187214157,3.5,1.13,0.95,1.44,8.55,-5.9,-7.69,0.017,"_          Kurucz V I 2009   19 wl:K09  19 gf:K09  19 K09  19 K09  19 K09  19 K09  19 K09  19 K09  19 K09   hfs:LGB,LWDF V",3d3.4s2 a2G,3d3.(4F).4s.4p.(1P*) x4G*,0.5,1.0,1.0
V 1,4890.8636,-5.278,1.3762801333673216,4.5,3.910588825626641,3.5,1.13,0.95,1.44,8.55,-5.9,-7.69,0.017,"_          Kurucz V I 2009   19 wl:K09  19 gf:K09  19 K09  19 K09  19 K09  19 K09  19 K09  19 K09  19 K09   hfs:LGB,LWDF V",3d3.4s2 a2G,3d3.(4F).4s.4p.(1P*) x4G*,0.5,1.0,1.0
V 1,4890.8662,-5.1080000000000005,1.376285076245322,4.5,3.9105924361704556,3.5,1.13,0.95,1.44,8.55,-5.9,-7.69,0.017,"_          Kurucz V I 2009   19 wl:K09  19 gf:K09  19 K09  19 K09  19 K09  19 K09  19 K09  19 K09  19 K09   hfs:LGB,LWDF V",3d3.4s2 a2G,3d3.(4F).4s.4p.(1P*) x4G*,0.5,1.0,1.0
W 1,4890.868,-1.29,2.5327293484481643,1.0,5.067035775888149,2.0,2.1,1.26,0.84,0.0,0.0,0.0,0.003,_          Hf 1 - U 2 Bell   36 wl:CB  36 gf:CB  36 CB  36 CB  36 CB  36 CB  36 CB  36 CB  36 CB    W,5d5.(a4P).6s a5P,* *,0.5,1.0,1.0
V 1,4890.8688,-4.962,1.376291254997803,4.5,3.9105972499809067,3.5,1.13,0.95,1.44,8.55,-5.9,-7.69,0.017,"_          Kurucz V I 2009   19 wl:K09  19 gf:K09  19 K09  19 K09  19 K09  19 K09  19 K09  19 K09  19 K09   hfs:LGB,LWDF V",3d3.4s2 a2G,3d3.(4F).4s.4p.(1P*) x4G*,0.5,1.0,1.0
V 1,4890.8715,-4.833,1.376298669376796,4.5,3.9106032674299467,3.5,1.13,0.95,1.44,8.55,-5.9,-7.69,0.017,"_          Kurucz V I 2009   19 wl:K09  19 gf:K09  19 K09  19 K09  19 K09  19 K09  19 K09  19 K09  19 K09   hfs:LGB,LWDF V",3d3.4s2 a2G,3d3.(4F).4s.4p.(1P*) x4G*,0.5,1.0,1.0
V 1,4890.8743,-4.717,1.376307319506285,4.5,3.9106104882696076,3.5,1.13,0.95,1.44,8.55,-5.9,-7.69,0.017,"_          Kurucz V I 2009   19 wl:K09  19 gf:K09  19 K09  19 K09  19 K09  19 K09  19 K09  19 K09  19 K09   hfs:LGB,LWDF V",3d3.4s2 a2G,3d3.(4F).4s.4p.(1P*) x4G*,0.5,1.0,1.0
V 1,4890.8771,-4.612,1.3763172055102546,4.5,3.9106189126238724,3.5,1.13,0.95,1.44,8.55,-5.9,-7.69,0.017,"_          Kurucz V I 2009   19 wl:K09  19 gf:K09  19 K09  19 K09  19 K09  19 K09  19 K09  19 K09  19 K09   hfs:LGB,LWDF V",3d3.4s2 a2G,3d3.(4F).4s.4p.(1P*) x4G*,0.5,1.0,1.0
TiO 1,4890.8919,-0.812,0.5382006470983235,67.0,3.072365732553192,68.0,99.0,99.0,99.0,7.297000000000001,0.0,0.0,0.002,_          -0.249121          8 wl:PPN2012   8 gf:PPN2012   8 PPN2012   8 PPN2012   8 PPN2012   8 PPN2012   8 PPN2012   8 PPN2012   8 PPN2012    (49)TiO,"8s2.9s1.3p4.1d1 X,3,2,0,66,2","8s2.11s1.3p4.1d1 C,3,2,0,67,4",0.5,1.0,1.0
TiO 1,4890.8965,-0.425,0.8307859829417582,110.0,3.365233144844291,111.0,99.0,99.0,99.0,7.25,0.0,0.0,0.002,_          0.299934           2 wl:PPN2012   2 gf:PPN2012   2 PPN2012   2 PPN2012   2 PPN2012   2 PPN2012   2 PPN2012   2 PPN2012   2 PPN2012    (47)TiO,"8s2.9s1.3p4.1d1 X,3,2,0,111,0","8s2.11s1.3p4.1d1 C,3,2,0,112,2",0.5,1.0,1.0
TiO 1,4890.9043,-1.158,0.5232169212640834,65.0,3.0575046146918297,65.0,99.0,99.0,99.0,7.252999999999999,0.0,0.0,0.001,_                             6 wl:PPN2012   6 gf:PPN2012   6 PPN2012   6 PPN2012   6 PPN2012   6 PPN2012   6 PPN2012   6 PPN2012   6 PPN2012    (48)TiO,"8s2.9s1.3p4.1d1 X,3,2,+,64,2","8s2.3p4.4p1.1d1 B,3,1,-,64,6",0.5,1.0,1.0
TiO 1,4890.9065,0.496,0.49817920527121295,74.0,3.032545479883316,73.0,99.0,99.0,99.0,7.295,0.0,0.0,0.059000000000000004,_          0.153902           6 wl:PPN2012   6 gf:PPN2012   6 PPN2012   6 PPN2012   6 PPN2012   6 PPN2012   6 PPN2012   6 PPN2012   6 PPN2012    (48)TiO,"8s2.9s1.3p4.1d1 X,3,2,0,74,1","8s2.11s1.3p4.1d1 C,3,2,0,73,3",0.5,1.0,1.0
Fe 1,4890.9096,-2.45,4.220362073531557,4.0,6.754646927721181,4.0,1.34,1.51,1.43,8.23,-5.16,-7.31,0.319,_          Kurucz Fe I 2014   5 wl:K14   5 gf:K14   5 K14   5 K14   5 K14   5 K14   5 K14   5 K14   5 K14    Fe,3d7.(4F).4p y5F*,3d6.4s.(6D).6s 5D,0.5,1.0,1.0
TiO 1,4890.9109,-0.373,0.7040578044084813,91.0,3.2383638350990336,92.0,99.0,99.0,99.0,7.274,0.0,0.0,0.003,_          0.0420902          3 wl:PPN2012   3 gf:PPN2012   3 PPN2012   3 PPN2012   3 PPN2012   3 PPN2012   3 PPN2012   3 PPN2012   3 PPN2012    (46)TiO,"8s2.9s1.3p4.1d1 X,3,2,0,92,1","8s2.11s1.3p4.1d1 C,3,2,0,93,3",0.5,1.0,1.0
TiO 1,4890.9339,-0.624,0.5535512545712974,68.0,3.0876762931303827,69.0,99.0,99.0,99.0,7.297000000000001,0.0,0.0,0.003,_          -0.284248          3 wl:PPN2012   3 gf:PPN2012   3 PPN2012   3 PPN2012   3 PPN2012   3 PPN2012   3 PPN2012   3 PPN2012   3 PPN2012    (46)TiO,"8s2.9s1.3p4.1d1 X,3,2,0,67,2","8s2.11s1.3p4.1d1 C,3,2,0,68,4",0.5,1.0,1.0
Ce 2,4890.9355,-2.89,0.8571513589163979,6.5,3.3914228228126952,7.5,1.22,0.94,0.06,0.0,0.0,0.0,0.006999999999999999,C-0.081    Ce 2: DREAM data  15 wl:PQWB  15 gf:PQWB  15 PQWB  15 PQWB  15 PQWB  15 PQWB  15 PQWB  15 PQWB  15 PQWB    Ce+,4f.5d.(3H*).6s 4H*,4f2.(1I).5d 2L,0.081,1.0,2.0
TiO 1,4890.9458,0.341,0.8157308174129357,63.0,3.3499969747855816,62.0,99.0,99.0,99.0,7.388999999999999,0.0,0.0,0.013000000000000001,_                             6 wl:PPN2012   6 gf:PPN2012   6 PPN2012   6 PPN2012   6 PPN2012   6 PPN2012   6 PPN2012   6 PPN2012   6 PPN2012    (48)TiO,"8s2.9s1.3p4.1d1 a,1,2,0,63,1","8s2.11s1.3p4.1d1 f,1,2,0,62,3",0.5,1.0,1.0
MgH 1,4890.9613,-1.584,0.8876326258960338,19.5,3.421890699499005,20.5,99.0,99.0,99.0,7.06,0.0,0.0,0.004,_                            18 wl:KMGH  18 gf:KMGH  18 KMGH  18 KMGH  18 KMGH  18 KMGH  18 KMGH  18 KMGH  18 KMGH    (24)MgH,"4s2.5s1 X,2,0,e,19,4","4s1.5s2/4s2.7s1/4s2.6s1 B,2,0,e,20,6",0.5,1.0,1.0
MgH 1,4890.9613,-1.6059999999999999,0.8876326258960338,18.5,3.421890699499005,19.5,99.0,99.0,99.0,7.06,0.0,0.0,0.003,_                            18 wl:KMGH  18 gf:KMGH  18 KMGH  18 KMGH  18 KMGH  18 KMGH  18 KMGH  18 KMGH  18 KMGH    (24)MgH,"4s2.5s1 X,2,0,f,19,4","4s1.5s2/4s2.7s1/4s2.6s1 B,2,0,f,20,6",0.5,1.0,1.0
CH 1,4890.987,-3.3489999999999998,0.7284103837261318,6.5,3.2626554389883684,5.5,99.0,99.0,99.0,6.27,0.0,0.0,0.002,_                            37 wl:JLIY  37 gf:JLIY  37 JLIY  37 JLIY  37 JLIY  37 JLIY  37 JLIY  37 JLIY  37 JLIY    (12)CH,"1s2.2s2.3s2.1p1 X,2,1,f,6,2","1s2.2s2.3s1.1p2 A,2,2,f,5,1",0.5,1.0,1.0
TiO 1,4890.9912,0.235,1.2374936892043489,107.0,3.7717362895794753,108.0,99.0,99.0,99.0,7.242999999999999,0.0,0.0,0.002,_                             6 wl:PPN2012   6 gf:PPN2012   6 PPN2012   6 PPN2012   6 PPN2012   6 PPN2012   6 PPN2012   6 PPN2012   6 PPN2012    (48)TiO,"8s2.9s1.3p4.1d1 X,3,2,0,107,4","8s2.11s1.3p4.1d1 C,3,2,0,108,7",0.5,1.0,1.0
Ti 1,4890.9934,-1.43,2.334099473017567,1.0,4.868340932738077,2.0,1.54,1.06,0.82,8.0,-5.99,-7.74,0.667,E0.05      Kurucz TiI 2016   22 wl:K16  24 gf:LGWSC  22 K16  22 K16  22 K16  22 K16  22 K16  22 K16  22 K16    Ti,3d3.(4P).4s c3P,3d.4s2.4p w1D*,1.1220184543019633,1.0,1.0
TiO 1,4890.994,0.426,0.905362564508978,59.0,3.4396037018705745,60.0,99.0,99.0,99.0,7.382999999999999,0.0,0.0,0.011000000000000001,_                             6 wl:PPN2012   6 gf:PPN2012   6 PPN2012   6 PPN2012   6 PPN2012   6 PPN2012   6 PPN2012   6 PPN2012   6 PPN2012    (48)TiO,"8s2.9s1.3p4.1d1 a,1,2,0,59,2","8s2.11s1.3p4.1d1 f,1,2,0,60,4",0.5,1.0,1.0
Fe 1,4891.0049,-3.556,4.434612718001414,4.0,6.968848226480446,4.0,1.1,1.43,1.27,8.07,-4.35,-7.34,0.023,_          Kurucz Fe I 2014   5 wl:K14   5 gf:K14   5 K14   5 K14   5 K14   5 K14   5 K14   5 K14   5 K14    Fe,3d7.(4F).4p z3G*,3d6.4s.(6D).5d 5D,0.5,1.0,1.0
TiO 1,4891.0394,-0.153,1.1234199701842804,87.0,3.6576376001420363,88.0,99.0,99.0,99.0,7.263999999999999,0.0,0.0,0.001,_                             6 wl:PPN2012   6 gf:PPN2012   6 PPN2012   6 PPN2012   6 PPN2012   6 PPN2012   6 PPN2012   6 PPN2012   6 PPN2012    (48)TiO,"8s2.9s1.3p4.1d1 X,3,2,0,88,5","8s2.11s1.3p4.1d1 C,3,2,0,89,8",0.5,1.0,1.0
TiO 1,4891.0426,-0.21899999999999997,1.1375406916136097,98.0,3.6717566725815396,99.0,99.0,99.0,99.0,7.348,0.0,0.0,0.001,_                             6 wl:PPN2012   6 gf:PPN2012   6 PPN2012   6 PPN2012   6 PPN2012   6 PPN2012   6 PPN2012   6 PPN2012   6 PPN2012    (48)TiO,"8s2.9s1.3p4.1d1 X,3,2,+,99,4","8s2.3p4.4p1.1d1 B,3,1,-,100,7",0.5,1.0,1.0
TiO 1,4891.047,-0.45299999999999996,0.5858519648519678,94.0,3.1200439796745267,93.0,99.0,99.0,99.0,7.275,0.0,0.0,0.005,_          -0.0419062         3 wl:PPN2012   3 gf:PPN2012   3 PPN2012   3 PPN2012   3 PPN2012   3 PPN2012   3 PPN2012   3 PPN2012   3 PPN2012    (46)TiO,"8s2.9s1.3p4.1d1 X,3,2,0,93,0","8s2.11s1.3p4.1d1 C,3,2,0,92,2",0.5,1.0,1.0
Fe 1,4891.0484,-2.049,4.075810881448294,4.0,6.6100238248033865,5.0,1.26,1.03,0.56,7.09,-5.47,-7.79,0.55,_          Kurucz Fe I 2014   5 wl:K14   5 gf:K14   5 K14   5 K14   5 K14   5 K14   5 K14   5 K14   5 K14    Fe,3d8 c3F,3d6.(3G).4s.4p.(3P*) y1H*,0.5,1.0,1.0
TiO 1,4891.0519,0.191,0.7562982236536061,35.0,3.2905093568394146,34.0,99.0,99.0,99.0,7.393,0.0,0.0,0.011000000000000001,_                             6 wl:PPN2012   6 gf:PPN2012   6 PPN2012   6 PPN2012   6 PPN2012   6 PPN2012   6 PPN2012   6 PPN2012   6 PPN2012    (48)TiO,"8s2.9s1.3p4.1d1 a,1,2,0,35,2","8s2.11s1.3p4.1d1 f,1,2,0,34,4",0.5,1.0,1.0
TiO 1,4891.0522,-0.932,0.4034566546286277,49.0,2.9376892618774386,48.0,99.0,99.0,99.0,7.312,0.0,0.0,0.003,_          0.0415617          8 wl:PPN2012   8 gf:PPN2012   8 PPN2012   8 PPN2012   8 PPN2012   8 PPN2012   8 PPN2012   8 PPN2012   8 PPN2012    (49)TiO,"8s2.9s1.3p4.1d1 X,3,2,0,48,2","8s2.11s1.3p4.1d1 C,3,2,0,47,4",0.5,1.0,1.0
Nd 1,4891.054,0.638,0.4564721238889776,7.0,2.99068209162333,8.0,1.17,1.13,1.0,0.0,0.0,0.0,0.452,_          La1 to Lu 2 Bell   1 wl:MC   1 gf:MC   1 MC   1 MC   1 MC   1 MC   1 MC   1 MC   1 MC    Nd,4f4.6s2 5I,4f4.6s.6p 5K*,0.5,1.0,1.0
TiO 1,4891.0562,-0.741,0.41438296040539857,50.0,2.948612393658754,49.0,99.0,99.0,99.0,7.311,0.0,0.0,0.005,_          0.0395594          3 wl:PPN2012   3 gf:PPN2012   3 PPN2012   3 PPN2012   3 PPN2012   3 PPN2012   3 PPN2012   3 PPN2012   3 PPN2012    (46)TiO,"8s2.9s1.3p4.1d1 X,3,2,0,49,2","8s2.11s1.3p4.1d1 C,3,2,0,48,4",0.5,1.0,1.0
CH 1,4891.063,-3.054,1.1381800161278643,9.5,3.6723853964469106,8.5,99.0,99.0,99.0,6.27,0.0,0.0,0.001,_                            37 wl:JLIY  37 gf:JLIY  37 JLIY  37 JLIY  37 JLIY  37 JLIY  37 JLIY  37 JLIY  37 JLIY    (12)CH,"1s2.2s2.3s2.1p1 X,2,1,f,10,3","1s2.2s2.3s1.1p2 A,2,2,f,9,2",0.5,1.0,1.0
TiO 1,4891.0727,-0.217,1.0914482147763376,97.0,3.6256485613369667,98.0,99.0,99.0,99.0,7.345,0.0,0.0,0.001,_                             6 wl:PPN2012   6 gf:PPN2012   6 PPN2012   6 PPN2012   6 PPN2012   6 PPN2012   6 PPN2012   6 PPN2012   6 PPN2012    (48)TiO,"8s2.9s1.3p4.1d1 X,3,2,-,96,4","8s2.3p4.4p1.1d1 B,3,1,+,97,7",0.5,1.0,1.0
TiO 1,4891.0828,-0.5710000000000001,0.6703329000498913,92.0,3.204495319844514,93.0,99.0,99.0,99.0,7.274,0.0,0.0,0.003,_          -0.0630668         4 wl:PPN2012   4 gf:PPN2012   4 PPN2012   4 PPN2012   4 PPN2012   4 PPN2012   4 PPN2012   4 PPN2012   4 PPN2012    (50)TiO,"8s2.9s1.3p4.1d1 X,3,2,0,91,1","8s2.11s1.3p4.1d1 C,3,2,0,92,3",0.5,1.0,1.0
TiO 1,4891.0978,-0.836,0.5418807584460515,66.0,3.076131628567149,67.0,99.0,99.0,99.0,7.297999999999999,0.0,0.0,0.002,_          0.122381           4 wl:PPN2012   4 gf:PPN2012   4 PPN2012   4 PPN2012   4 PPN2012   4 PPN2012   4 PPN2012   4 PPN2012   4 PPN2012    (50)TiO,"8s2.9s1.3p4.1d1 X,3,2,0,66,2","8s2.11s1.3p4.1d1 C,3,2,0,67,4",0.5,1.0,1.0
TiO 1,4891.0997,-0.603,0.8277249866840972,64.0,3.361911360225671,63.0,99.0,99.0,99.0,7.388,0.0,0.0,0.001,_                             3 wl:PPN2012   3 gf:PPN2012   3 PPN2012   3 PPN2012   3 PPN2012   3 PPN2012   3 PPN2012   3 PPN2012   3 PPN2012    (46)TiO,"8s2.9s1.3p4.1d1 a,1,2,0,64,1","8s2.11s1.3p4.1d1 f,1,2,0,63,3",0.5,1.0,1.0