species,wlcent,gflog,excit,j_lo,e_upp,j_up,lande_lower,lande_upper,lande,gamrad,gamqst,gamvw,depth,reference,term_lower,term_upper,error,atom_number,ionization
Nb 1,4730.308,-1.22,1.3945593750402947,5.5,4.014886038685054,5.5,1.12,0.99,1.06,0.0,0.0,0.0,0.035,_          Cu 1 - Ba 2 Bell  17 wl:CB  17 gf:CB  17 CB  17 CB  17 CB  17 CB  17 CB  17 CB  17 CB    Nb,4d4.(a3H).5s a4H,4d4.(a3H).5p z4I*,0.5,1.0,1.0
TiO 1,4730.3246,0.441,0.658419878435974,78.0,3.2786477886674477,79.0,99.0,99.0,99.0,7.284,0.0,0.0,0.027999999999999997,_          -0.161818          6 wl:PPN2012   6 gf:PPN2012   6 PPN2012   6 PPN2012   6 PPN2012   6 PPN2012   6 PPN2012   6 PPN2012   6 PPN2012    (48)TiO,"8s2.9s1.3p4.1d1 X,3,2,0,78,2","8s2.11s1.3p4.1d1 C,3,2,0,79,5",0.5,1.0,1.0
TiO 1,4730.3366,-0.764,0.5928362798591142,82.0,3.2131225122570775,81.0,99.0,99.0,99.0,7.284,0.0,0.0,0.002,_          -0.0444596         8 wl:PPN2012   8 gf:PPN2012   8 PPN2012   8 PPN2012   8 PPN2012   8 PPN2012   8 PPN2012   8 PPN2012   8 PPN2012    (49)TiO,"8s2.9s1.3p4.1d1 X,3,2,0,83,1","8s2.11s1.3p4.1d1 C,3,2,0,82,4",0.5,1.0,1.0
TiO 1,4730.3412,0.474,0.8010001557241521,102.0,3.4189687639172264,103.0,99.0,99.0,99.0,7.257999999999999,0.0,0.0,0.018000000000000002,_          -4.22770           6 wl:PPN2012   6 gf:PPN2012   6 PPN2012   6 PPN2012   6 PPN2012   6 PPN2012   6 PPN2012   6 PPN2012   6 PPN2012    (48)TiO,"8s2.9s1.3p4.1d1 X,3,2,0,101,1","8s2.11s1.3p4.1d1 C,3,2,0,102,4",0.5,1.0,1.0
TiO 1,4730.3737,-0.7709999999999999,0.5803968089443192,84.0,3.1999431160502008,83.0,99.0,99.0,99.0,7.2829999999999995,0.0,0.0,0.002,_          -1.34368           4 wl:PPN2012   4 gf:PPN2012   4 PPN2012   4 PPN2012   4 PPN2012   4 PPN2012   4 PPN2012   4 PPN2012   4 PPN2012    (50)TiO,"8s2.9s1.3p4.1d1 X,3,2,0,83,1","8s2.11s1.3p4.1d1 C,3,2,0,82,4",0.5,1.0,1.0
TiO 1,4730.3756,0.429,1.0883757623788302,94.0,3.708665032389632,93.0,99.0,99.0,99.0,7.257999999999999,0.0,0.0,0.005,_                             6 wl:PPN2012   6 gf:PPN2012   6 PPN2012   6 PPN2012   6 PPN2012   6 PPN2012   6 PPN2012   6 PPN2012   6 PPN2012    (48)TiO,"8s2.9s1.3p4.1d1 X,3,2,0,95,4","8s2.11s1.3p4.1d1 C,3,2,0,94,8",0.5,1.0,1.0
TiO 1,4730.3791,-1.195,0.42657094177404525,27.0,3.0465816068947116,26.0,99.0,99.0,99.0,7.315,0.0,0.0,0.001,_          -0.499560          4 wl:PPN2012   4 gf:PPN2012   4 PPN2012   4 PPN2012   4 PPN2012   4 PPN2012   4 PPN2012   4 PPN2012   4 PPN2012    (50)TiO,"8s2.9s1.3p4.1d1 X,3,2,0,27,3","8s2.11s1.3p4.1d1 C,3,2,0,26,6",0.5,1.0,1.0
V 1,4730.3876,-1.021,1.9451830288198786,2.5,4.565465619306026,3.5,1.05,1.06,1.07,7.63,-6.11,-7.79,0.8220000000000001,"_          Kurucz V I 2009   19 wl:K09  19 gf:K09  19 K09  19 K09  19 K09  19 K09  19 K09  19 K09  19 K09   hfs:UBDE,GYDE V",3d4.(3F2).4s b4F,3d3.(2H).4s.4p.(3P*) w4G*,0.5,1.0,1.0
Mn 2,4730.3905,-2.5639999999999996,5.373414124701322,2.0,7.993695130917394,3.0,1.11,0.91,0.71,8.44,-6.5,-7.89,0.002,"_          Kurucz MnII 2009  71 wl:K09  71 gf:K09  71 K09  71 K09  71 K09  71 K09  71 K09  71 K09  71 K09   hfs:HSR,TNPB Mn+",3d5.(2D).4s c3D,3d5.(4G).4p z5G*,0.5,1.0,2.0
Mn 2,4730.3908,-2.7319999999999998,5.373404308500456,2.0,7.993685147585829,3.0,1.11,0.91,0.71,8.44,-6.5,-7.89,0.002,"_          Kurucz MnII 2009  71 wl:K09  71 gf:K09  71 K09  71 K09  71 K09  71 K09  71 K09  71 K09  71 K09   hfs:HSR,TNPB Mn+",3d5.(2D).4s c3D,3d5.(4G).4p z5G*,0.5,1.0,2.0
Mn 2,4730.3917,-2.932,5.373396659295393,2.0,7.9936769795069,3.0,1.11,0.91,0.71,8.44,-6.5,-7.89,0.002,"_          Kurucz MnII 2009  71 wl:K09  71 gf:K09  71 K09  71 K09  71 K09  71 K09  71 K09  71 K09  71 K09   hfs:HSR,TNPB Mn+",3d5.(2D).4s c3D,3d5.(4G).4p z5G*,0.5,1.0,2.0
V 1,4730.3923,-1.162,1.945175434415831,2.5,4.565455429044836,3.5,1.05,1.06,1.07,7.63,-6.11,-7.79,0.8220000000000001,"_          Kurucz V I 2009   19 wl:K09  19 gf:K09  19 K09  19 K09  19 K09  19 K09  19 K09  19 K09  19 K09   hfs:UBDE,GYDE V",3d4.(3F2).4s b4F,3d3.(2H).4s.4p.(3P*) w4G*,0.5,1.0,1.0
Mn 2,4730.3933,-3.1839999999999997,5.373391187872759,2.0,7.993670626432638,3.0,1.11,0.91,0.71,8.44,-6.5,-7.89,0.002,"_          Kurucz MnII 2009  71 wl:K09  71 gf:K09  71 K09  71 K09  71 K09  71 K09  71 K09  71 K09  71 K09   hfs:HSR,TNPB Mn+",3d5.(2D).4s c3D,3d5.(4G).4p z5G*,0.5,1.0,2.0
Mn 2,4730.3956,-3.548,5.373387901795589,2.0,7.993666088611011,3.0,1.11,0.91,0.71,8.44,-6.5,-7.89,0.002,"_          Kurucz MnII 2009  71 wl:K09  71 gf:K09  71 K09  71 K09  71 K09  71 K09  71 K09  71 K09  71 K09   hfs:HSR,TNPB Mn+",3d5.(2D).4s c3D,3d5.(4G).4p z5G*,0.5,1.0,2.0
V 1,4730.3967,-1.3259999999999998,1.9451691077502025,2.5,4.565446694482108,3.5,1.05,1.06,1.07,7.63,-6.11,-7.79,0.8220000000000001,"_          Kurucz V I 2009   19 wl:K09  19 gf:K09  19 K09  19 K09  19 K09  19 K09  19 K09  19 K09  19 K09   hfs:UBDE,GYDE V",3d4.(3F2).4s b4F,3d3.(2H).4s.4p.(3P*) w4G*,0.5,1.0,1.0
Mn 2,4730.4005,-3.451,5.373387901795589,2.0,7.993663365918034,3.0,1.11,0.91,0.71,8.44,-6.5,-7.89,0.002,"_          Kurucz MnII 2009  71 wl:K09  71 gf:K09  71 K09  71 K09  71 K09  71 K09  71 K09  71 K09  71 K09   hfs:HSR,TNPB Mn+",3d5.(2D).4s c3D,3d5.(4G).4p z5G*,0.5,1.0,2.0
V 1,4730.4007,-1.524,1.9451640477071352,2.5,4.565439415741827,3.5,1.05,1.06,1.07,7.63,-6.11,-7.79,0.8220000000000001,"_          Kurucz V I 2009   19 wl:K09  19 gf:K09  19 K09  19 K09  19 K09  19 K09  19 K09  19 K09  19 K09   hfs:UBDE,GYDE V",3d4.(3F2).4s b4F,3d3.(2H).4s.4p.(3P*) w4G*,0.5,1.0,1.0
Mn 2,4730.4015,-3.286,5.373391187872759,2.0,7.993666088611011,3.0,1.11,0.91,0.71,8.44,-6.5,-7.89,0.002,"_          Kurucz MnII 2009  71 wl:K09  71 gf:K09  71 K09  71 K09  71 K09  71 K09  71 K09  71 K09  71 K09   hfs:HSR,TNPB Mn+",3d5.(2D).4s c3D,3d5.(4G).4p z5G*,0.5,1.0,2.0
Mn 2,4730.4032,-3.2,5.373396659295393,2.0,7.993670626432638,3.0,1.11,0.91,0.71,8.44,-6.5,-7.89,0.002,"_          Kurucz MnII 2009  71 wl:K09  71 gf:K09  71 K09  71 K09  71 K09  71 K09  71 K09  71 K09  71 K09   hfs:HSR,TNPB Mn+",3d5.(2D).4s c3D,3d5.(4G).4p z5G*,0.5,1.0,2.0
V 1,4730.4043,-1.7790000000000001,1.9451602534187404,2.5,4.565433592700009,3.5,1.05,1.06,1.07,7.63,-6.11,-7.79,0.8220000000000001,"_          Kurucz V I 2009   19 wl:K09  19 gf:K09  19 K09  19 K09  19 K09  19 K09  19 K09  19 K09  19 K09   hfs:UBDE,GYDE V",3d4.(3F2).4s b4F,3d3.(2H).4s.4p.(3P*) w4G*,0.5,1.0,1.0
Mn 2,4730.4055,-3.21,5.373404308500456,2.0,7.9936769795069,3.0,1.11,0.91,0.71,8.44,-6.5,-7.89,0.002,"_          Kurucz MnII 2009  71 wl:K09  71 gf:K09  71 K09  71 K09  71 K09  71 K09  71 K09  71 K09  71 K09   hfs:HSR,TNPB Mn+",3d5.(2D).4s c3D,3d5.(4G).4p z5G*,0.5,1.0,2.0
V 1,4730.406,-1.861,1.9451830288198786,2.5,4.565455429044836,3.5,1.05,1.06,1.07,7.63,-6.11,-7.79,0.8220000000000001,"_          Kurucz V I 2009   19 wl:K09  19 gf:K09  19 K09  19 K09  19 K09  19 K09  19 K09  19 K09  19 K09   hfs:UBDE,GYDE V",3d4.(3F2).4s b4F,3d3.(2H).4s.4p.(3P*) w4G*,0.5,1.0,1.0
Mn 2,4730.4064,-3.995,5.373391187872759,2.0,7.993663365918034,3.0,1.11,0.91,0.71,8.44,-6.5,-7.89,0.002,"_          Kurucz MnII 2009  71 wl:K09  71 gf:K09  71 K09  71 K09  71 K09  71 K09  71 K09  71 K09  71 K09   hfs:HSR,TNPB Mn+",3d5.(2D).4s c3D,3d5.(4G).4p z5G*,0.5,1.0,2.0
V 1,4730.4076,-2.167,1.9451577242650961,2.5,4.565429225356652,3.5,1.05,1.06,1.07,7.63,-6.11,-7.79,0.8220000000000001,"_          Kurucz V I 2009   19 wl:K09  19 gf:K09  19 K09  19 K09  19 K09  19 K09  19 K09  19 K09  19 K09   hfs:UBDE,GYDE V",3d4.(3F2).4s b4F,3d3.(2H).4s.4p.(3P*) w4G*,0.5,1.0,1.0
V 1,4730.4081,-1.665,1.945175434415831,2.5,4.565446694482108,3.5,1.05,1.06,1.07,7.63,-6.11,-7.79,0.8220000000000001,"_          Kurucz V I 2009   19 wl:K09  19 gf:K09  19 K09  19 K09  19 K09  19 K09  19 K09  19 K09  19 K09   hfs:UBDE,GYDE V",3d4.(3F2).4s b4F,3d3.(2H).4s.4p.(3P*) w4G*,0.5,1.0,1.0
Mn 2,4730.4085,-3.3760000000000003,5.373414124701322,2.0,7.993685147585829,3.0,1.11,0.91,0.71,8.44,-6.5,-7.89,0.002,"_          Kurucz MnII 2009  71 wl:K09  71 gf:K09  71 K09  71 K09  71 K09  71 K09  71 K09  71 K09  71 K09   hfs:HSR,TNPB Mn+",3d5.(2D).4s c3D,3d5.(4G).4p z5G*,0.5,1.0,2.0
V 1,4730.4098,-1.611,1.9451691077502025,2.5,4.565439415741827,3.5,1.05,1.06,1.07,7.63,-6.11,-7.79,0.8220000000000001,"_          Kurucz V I 2009   19 wl:K09  19 gf:K09  19 K09  19 K09  19 K09  19 K09  19 K09  19 K09  19 K09   hfs:UBDE,GYDE V",3d4.(3F2).4s b4F,3d3.(2H).4s.4p.(3P*) w4G*,0.5,1.0,1.0
TiO 1,4730.4101,-0.536,0.8003685058317207,99.0,3.420504184218696,100.0,99.0,99.0,99.0,7.2620000000000005,0.0,0.0,0.002,_          -0.242941          2 wl:PPN2012   2 gf:PPN2012   2 PPN2012   2 PPN2012   2 PPN2012   2 PPN2012   2 PPN2012   2 PPN2012   2 PPN2012    (47)TiO,"8s2.9s1.3p4.1d1 X,3,2,0,100,1","8s2.11s1.3p4.1d1 C,3,2,0,101,4",0.5,1.0,1.0
V 1,4730.4112,-1.633,1.9451640477071352,2.5,4.565433592700009,3.5,1.05,1.06,1.07,7.63,-6.11,-7.79,0.8220000000000001,"_          Kurucz V I 2009   19 wl:K09  19 gf:K09  19 K09  19 K09  19 K09  19 K09  19 K09  19 K09  19 K09   hfs:UBDE,GYDE V",3d4.(3F2).4s b4F,3d3.(2H).4s.4p.(3P*) w4G*,0.5,1.0,1.0
TiO 1,4730.4113,-0.965,0.4512090195032102,29.0,3.071648483970827,28.0,99.0,99.0,99.0,7.314,0.0,0.0,0.002,_          0.306698           3 wl:PPN2012   3 gf:PPN2012   3 PPN2012   3 PPN2012   3 PPN2012   3 PPN2012   3 PPN2012   3 PPN2012   3 PPN2012    (46)TiO,"8s2.9s1.3p4.1d1 X,3,2,0,30,3","8s2.11s1.3p4.1d1 C,3,2,0,29,6",0.5,1.0,1.0
Mn 2,4730.4114,-3.9619999999999997,5.373396659295393,2.0,7.993666088611011,3.0,1.11,0.91,0.71,8.44,-6.5,-7.89,0.002,"_          Kurucz MnII 2009  71 wl:K09  71 gf:K09  71 K09  71 K09  71 K09  71 K09  71 K09  71 K09  71 K09   hfs:HSR,TNPB Mn+",3d5.(2D).4s c3D,3d5.(4G).4p z5G*,0.5,1.0,2.0
TiO 1,4730.4115,-0.522,0.719639692003416,85.0,3.333760748190079,86.0,99.0,99.0,99.0,7.277,0.0,0.0,0.002,_          -11.1259           2 wl:PPN2012   2 gf:PPN2012   2 PPN2012   2 PPN2012   2 PPN2012   2 PPN2012   2 PPN2012   2 PPN2012   2 PPN2012    (47)TiO,"8s2.9s1.3p4.1d1 X,3,2,0,84,2","8s2.11s1.3p4.1d1 C,3,2,0,85,5",0.5,1.0,1.0
V 1,4730.4122,-1.724,1.9451602534187404,2.5,4.565429225356652,3.5,1.05,1.06,1.07,7.63,-6.11,-7.79,0.8220000000000001,"_          Kurucz V I 2009   19 wl:K09  19 gf:K09  19 K09  19 K09  19 K09  19 K09  19 K09  19 K09  19 K09   hfs:UBDE,GYDE V",3d4.(3F2).4s b4F,3d3.(2H).4s.4p.(3P*) w4G*,0.5,1.0,1.0
V 1,4730.4129,-1.912,1.9451577242650961,2.5,4.565426313959728,3.5,1.05,1.06,1.07,7.63,-6.11,-7.79,0.8220000000000001,"_          Kurucz V I 2009   19 wl:K09  19 gf:K09  19 K09  19 K09  19 K09  19 K09  19 K09  19 K09  19 K09   hfs:UBDE,GYDE V",3d4.(3F2).4s b4F,3d3.(2H).4s.4p.(3P*) w4G*,0.5,1.0,1.0
C2 1,4730.4147,-1.525,0.07465448083849026,2.0,2.6949217560526604,2.0,99.0,99.0,99.0,6.77,0.0,0.0,0.001,_                             9 wl:BBSB   9 gf:BBSB   9 BBSB   9 BBSB   9 BBSB   9 BBSB   9 BBSB   9 BBSB   9 BBSB    (12)C(12)C,"2sg2.2su2.3sg1.1pu3 a,3,1,f,1,0,g","2sg2.2su1.3sg1.1pu3/2sg2.2su2.3sg1.1pg1.1pu2 d,3,1,e,1,1,g",0.5,1.0,1.0
V 1,4730.4155,-2.197,1.9451577242650961,2.5,4.565424858137282,3.5,1.05,1.06,1.07,7.63,-6.11,-7.79,0.8220000000000001,"_          Kurucz V I 2009   19 wl:K09  19 gf:K09  19 K09  19 K09  19 K09  19 K09  19 K09  19 K09  19 K09   hfs:UBDE,GYDE V",3d4.(3F2).4s b4F,3d3.(2H).4s.4p.(3P*) w4G*,0.5,1.0,1.0
Mn 2,4730.417,-4.1080000000000005,5.373404308500456,2.0,7.993670626432638,3.0,1.11,0.91,0.71,8.44,-6.5,-7.89,0.002,"_          Kurucz MnII 2009  71 wl:K09  71 gf:K09  71 K09  71 K09  71 K09  71 K09  71 K09  71 K09  71 K09   hfs:HSR,TNPB Mn+",3d5.(2D).4s c3D,3d5.(4G).4p z5G*,0.5,1.0,2.0
V 1,4730.4175,-2.167,1.9451602534187404,2.5,4.565426313959728,3.5,1.05,1.06,1.07,7.63,-6.11,-7.79,0.8220000000000001,"_          Kurucz V I 2009   19 wl:K09  19 gf:K09  19 K09  19 K09  19 K09  19 K09  19 K09  19 K09  19 K09   hfs:UBDE,GYDE V",3d4.(3F2).4s b4F,3d3.(2H).4s.4p.(3P*) w4G*,0.5,1.0,1.0
V 1,4730.4191,-2.218,1.9451640477071352,2.5,4.565429225356652,3.5,1.05,1.06,1.07,7.63,-6.11,-7.79,0.8220000000000001,"_          Kurucz V I 2009   19 wl:K09  19 gf:K09  19 K09  19 K09  19 K09  19 K09  19 K09  19 K09  19 K09   hfs:UBDE,GYDE V",3d4.(3F2).4s b4F,3d3.(2H).4s.4p.(3P*) w4G*,0.5,1.0,1.0
V 1,4730.4203,-2.343,1.9451691077502025,2.5,4.565433592700009,3.5,1.05,1.06,1.07,7.63,-6.11,-7.79,0.8220000000000001,"_          Kurucz V I 2009   19 wl:K09  19 gf:K09  19 K09  19 K09  19 K09  19 K09  19 K09  19 K09  19 K09   hfs:UBDE,GYDE V",3d4.(3F2).4s b4F,3d3.(2H).4s.4p.(3P*) w4G*,0.5,1.0,1.0
V 1,4730.4212,-2.565,1.945175434415831,2.5,4.565439415741827,3.5,1.05,1.06,1.07,7.63,-6.11,-7.79,0.8220000000000001,"_          Kurucz V I 2009   19 wl:K09  19 gf:K09  19 K09  19 K09  19 K09  19 K09  19 K09  19 K09  19 K09   hfs:UBDE,GYDE V",3d4.(3F2).4s b4F,3d3.(2H).4s.4p.(3P*) w4G*,0.5,1.0,1.0
V 1,4730.4218,-2.975,1.9451830288198786,2.5,4.565446694482108,3.5,1.05,1.06,1.07,7.63,-6.11,-7.79,0.8220000000000001,"_          Kurucz V I 2009   19 wl:K09  19 gf:K09  19 K09  19 K09  19 K09  19 K09  19 K09  19 K09  19 K09   hfs:UBDE,GYDE V",3d4.(3F2).4s b4F,3d3.(2H).4s.4p.(3P*) w4G*,0.5,1.0,1.0
Mn 2,4730.4232,-4.473,5.373414124701322,2.0,7.9936769795069,3.0,1.11,0.91,0.71,8.44,-6.5,-7.89,0.002,"_          Kurucz MnII 2009  71 wl:K09  71 gf:K09  71 K09  71 K09  71 K09  71 K09  71 K09  71 K09  71 K09   hfs:HSR,TNPB Mn+",3d5.(2D).4s c3D,3d5.(4G).4p z5G*,0.5,1.0,2.0
TiO 1,4730.4506,-0.758,0.5878277026323333,83.0,3.208131280419523,82.0,99.0,99.0,99.0,7.284,0.0,0.0,0.002,_          0.100759           8 wl:PPN2012   8 gf:PPN2012   8 PPN2012   8 PPN2012   8 PPN2012   8 PPN2012   8 PPN2012   8 PPN2012   8 PPN2012    (49)TiO,"8s2.9s1.3p4.1d1 X,3,2,0,83,1","8s2.11s1.3p4.1d1 C,3,2,0,82,4",0.5,1.0,1.0
TiO 1,4730.4572,0.436,0.6636573552881244,77.0,3.283836403347375,78.0,99.0,99.0,99.0,7.285,0.0,0.0,0.027000000000000003,_          -0.117260          6 wl:PPN2012   6 gf:PPN2012   6 PPN2012   6 PPN2012   6 PPN2012   6 PPN2012   6 PPN2012   6 PPN2012   6 PPN2012    (48)TiO,"8s2.9s1.3p4.1d1 X,3,2,0,78,2","8s2.11s1.3p4.1d1 C,3,2,0,79,5",0.5,1.0,1.0
TiO 1,4730.4639,-0.655,0.5144763948966121,62.0,3.1346575010935407,61.0,99.0,99.0,99.0,7.3,0.0,0.0,0.004,_          -0.107023          2 wl:PPN2012   2 gf:PPN2012   2 PPN2012   2 PPN2012   2 PPN2012   2 PPN2012   2 PPN2012   2 PPN2012   2 PPN2012    (47)TiO,"8s2.9s1.3p4.1d1 X,3,2,0,62,2","8s2.11s1.3p4.1d1 C,3,2,0,61,5",0.5,1.0,1.0
TiO 1,4730.4676,-1.161,0.43131466395819057,28.0,3.0512829636785814,27.0,99.0,99.0,99.0,7.315,0.0,0.0,0.001,_          -0.487491          8 wl:PPN2012   8 gf:PPN2012   8 PPN2012   8 PPN2012   8 PPN2012   8 PPN2012   8 PPN2012   8 PPN2012   8 PPN2012    (49)TiO,"8s2.9s1.3p4.1d1 X,3,2,0,28,3","8s2.11s1.3p4.1d1 C,3,2,0,27,6",0.5,1.0,1.0
TiO 1,4730.4686,0.47600000000000003,1.2647797842278214,109.0,3.885017551202994,110.0,99.0,99.0,99.0,7.237,0.0,0.0,0.003,_                             6 wl:PPN2012   6 gf:PPN2012   6 PPN2012   6 PPN2012   6 PPN2012   6 PPN2012   6 PPN2012   6 PPN2012   6 PPN2012    (48)TiO,"8s2.9s1.3p4.1d1 X,3,2,0,109,4","8s2.11s1.3p4.1d1 C,3,2,0,110,8",0.5,1.0,1.0
TiO 1,4730.4876,-1.025,0.44607096557901116,28.0,3.0664675563111428,27.0,99.0,99.0,99.0,7.315,0.0,0.0,0.002,_          0.305598           2 wl:PPN2012   2 gf:PPN2012   2 PPN2012   2 PPN2012   2 PPN2012   2 PPN2012   2 PPN2012   2 PPN2012   2 PPN2012    (47)TiO,"8s2.9s1.3p4.1d1 X,3,2,0,29,3","8s2.11s1.3p4.1d1 C,3,2,0,28,6",0.5,1.0,1.0
TiO 1,4730.4945,-1.226,0.40798024287016477,25.0,3.0289602288450723,24.0,99.0,99.0,99.0,7.316,0.0,0.0,0.001,_          1.36550            4 wl:PPN2012   4 gf:PPN2012   4 PPN2012   4 PPN2012   4 PPN2012   4 PPN2012   4 PPN2012   4 PPN2012   4 PPN2012    (50)TiO,"8s2.9s1.3p4.1d1 X,3,2,0,24,3","8s2.11s1.3p4.1d1 C,3,2,0,23,6",0.5,1.0,1.0
Ca 1,4730.5046,-1.518,4.738566673246095,2.0,7.358784478765474,2.0,1.17,0.68,0.92,8.0,-3.95,-7.01,0.026000000000000002,_      A   Kurucz CaI 2007   27 wl:K07  27 gf:K07  27 K07  27 K07  27 K07  27 K07  27 K07  27 K07  27 K07    Ca,3p6.3d.4p 3D*,3p6.3d.6d 3F,0.5,1.0,1.0
TiO 1,4730.5422,-0.807,0.5087459320784811,60.0,3.1288857887329113,59.0,99.0,99.0,99.0,7.301,0.0,0.0,0.003,_          -0.103231          8 wl:PPN2012   8 gf:PPN2012   8 PPN2012   8 PPN2012   8 PPN2012   8 PPN2012   8 PPN2012   8 PPN2012   8 PPN2012    (49)TiO,"8s2.9s1.3p4.1d1 X,3,2,0,61,2","8s2.11s1.3p4.1d1 C,3,2,0,60,5",0.5,1.0,1.0
Ti 1,4730.5431,-2.144,3.3232005181547577,2.0,5.943396998392173,3.0,0.66,0.84,1.03,8.14,-4.13,-7.29,0.013999999999999999,_          Kurucz TiI 2016   22 wl:K16  22 gf:K16  22 K16  22 K16  22 K16  22 K16  22 K16  22 K16  22 K16    Ti,3d2.(1D).4s.4p.(3P*) x3F*,3d2.4s.(4F).5d h5G,0.5,1.0,1.0
TiO 1,4730.5435,-1.1909999999999998,0.41239135264775695,26.0,3.033319265259727,25.0,99.0,99.0,99.0,7.315,0.0,0.0,0.002,_          1.32035            8 wl:PPN2012   8 gf:PPN2012   8 PPN2012   8 PPN2012   8 PPN2012   8 PPN2012   8 PPN2012   8 PPN2012   8 PPN2012    (49)TiO,"8s2.9s1.3p4.1d1 X,3,2,0,25,3","8s2.11s1.3p4.1d1 C,3,2,0,24,6",0.5,1.0,1.0
TiO 1,4730.5571,-0.012,0.43627234567191003,29.0,3.0561979452346923,28.0,99.0,99.0,99.0,7.314,0.0,0.0,0.023,_          -0.475235          6 wl:PPN2012   6 gf:PPN2012   6 PPN2012   6 PPN2012   6 PPN2012   6 PPN2012   6 PPN2012   6 PPN2012   6 PPN2012    (48)TiO,"8s2.9s1.3p4.1d1 X,3,2,0,29,3","8s2.11s1.3p4.1d1 C,3,2,0,28,6",0.5,1.0,1.0
TiO 1,4730.5583,-0.045,0.4411594059867506,27.0,3.0615161234009762,26.0,99.0,99.0,99.0,7.315,0.0,0.0,0.021,_          0.304482           6 wl:PPN2012   6 gf:PPN2012   6 PPN2012   6 PPN2012   6 PPN2012   6 PPN2012   6 PPN2012   6 PPN2012   6 PPN2012    (48)TiO,"8s2.9s1.3p4.1d1 X,3,2,0,28,3","8s2.11s1.3p4.1d1 C,3,2,0,27,6",0.5,1.0,1.0
TiO 1,4730.5614,-0.373,0.9891586481953356,74.0,3.6093450113222367,74.0,99.0,99.0,99.0,7.454,0.0,0.0,0.001,_                             6 wl:PPN2012   6 gf:PPN2012   6 PPN2012   6 PPN2012   6 PPN2012   6 PPN2012   6 PPN2012   6 PPN2012   6 PPN2012    (48)TiO,"8s2.9s1.3p4.1d1 X,3,2,-,75,5","8s2.3p4.4p1.1d1 B,3,1,+,75,9",0.5,1.0,1.0
TiO 1,4730.5905,-0.5379999999999999,0.9369669795366562,82.0,3.5571372495147258,82.0,99.0,99.0,99.0,7.388,0.0,0.0,0.001,_                             6 wl:PPN2012   6 gf:PPN2012   6 PPN2012   6 PPN2012   6 PPN2012   6 PPN2012   6 PPN2012   6 PPN2012   6 PPN2012    (48)TiO,"8s2.9s1.3p4.1d1 X,3,2,+,82,4","8s2.3p4.4p1.1d1 B,3,1,-,82,8",0.5,1.0,1.0
V 1,4730.595,-5.164,0.27527207327862824,2.5,2.895439801208697,3.5,1.66,1.23,0.69,6.89,-6.15,-7.78,0.196,"_          Kurucz V I 2009   19 wl:K09  19 gf:K09  19 K09  19 K09  19 K09  19 K09  19 K09  19 K09  19 K09   hfs:UBDE,PBAG V",3d4.(5D).4s a6D,3d3.(4F).4s.4p.(3P*) z4F*,0.5,1.0,1.0
TiO 1,4730.597,-0.04,0.4170102227450498,27.0,3.0378844873947743,26.0,99.0,99.0,99.0,7.315,0.0,0.0,0.024,_          1.27719            6 wl:PPN2012   6 gf:PPN2012   6 PPN2012   6 PPN2012   6 PPN2012   6 PPN2012   6 PPN2012   6 PPN2012   6 PPN2012    (48)TiO,"8s2.9s1.3p4.1d1 X,3,2,0,26,3","8s2.11s1.3p4.1d1 C,3,2,0,25,6",0.5,1.0,1.0
V 1,4730.6035,-5.305,0.275262808435488,2.5,2.8954258358766625,3.5,1.66,1.23,0.69,6.89,-6.15,-7.78,0.196,"_          Kurucz V I 2009   19 wl:K09  19 gf:K09  19 K09  19 K09  19 K09  19 K09  19 K09  19 K09  19 K09   hfs:UBDE,PBAG V",3d4.(5D).4s a6D,3d3.(4F).4s.4p.(3P*) z4F*,0.5,1.0,1.0
V 1,4730.6111,-5.468999999999999,0.27525508347608046,2.5,2.8954138656983335,3.5,1.66,1.23,0.69,6.89,-6.15,-7.78,0.196,"_          Kurucz V I 2009   19 wl:K09  19 gf:K09  19 K09  19 K09  19 K09  19 K09  19 K09  19 K09  19 K09   hfs:UBDE,PBAG V",3d4.(5D).4s a6D,3d3.(4F).4s.4p.(3P*) z4F*,0.5,1.0,1.0
V 1,4730.618,-5.667000000000001,0.2752489007561052,2.5,2.895403890425742,3.5,1.66,1.23,0.69,6.89,-6.15,-7.78,0.196,"_          Kurucz V I 2009   19 wl:K09  19 gf:K09  19 K09  19 K09  19 K09  19 K09  19 K09  19 K09  19 K09   hfs:UBDE,PBAG V",3d4.(5D).4s a6D,3d3.(4F).4s.4p.(3P*) z4F*,0.5,1.0,1.0
V 1,4730.6202,-6.004,0.27527207327862824,2.5,2.8954258358766625,3.5,1.66,1.23,0.69,6.89,-6.15,-7.78,0.196,"_          Kurucz V I 2009   19 wl:K09  19 gf:K09  19 K09  19 K09  19 K09  19 K09  19 K09  19 K09  19 K09   hfs:UBDE,PBAG V",3d4.(5D).4s a6D,3d3.(4F).4s.4p.(3P*) z4F*,0.5,1.0,1.0