species,wlcent,gflog,excit,j_lo,e_upp,j_up,lande_lower,lande_upper,lande,gamrad,gamqst,gamvw,depth,reference,term_lower,term_upper,error,atom_number,ionization
Co 1,4794.2314,-3.091,4.071861225479645,4.5,6.657250577394408,3.5,1.31,1.28,1.37,8.42,-5.07,-7.53,0.016,"_          Kurucz CoI 2008   12 wl:K08  12 gf:K08  12 K08  12 K08  12 K08  12 K08  12 K08  12 K08  12 K08   hfs:P,P Co",3p6.3d8.(3F).4p y4F*,3p6.3d7.4s.(3F).5s h4F,0.5,1.0,1.0
Co 1,4794.2332,-4.091,4.071855408885005,4.5,6.657243765950567,3.5,1.31,1.28,1.37,8.42,-5.07,-7.53,0.016,"_          Kurucz CoI 2008   12 wl:K08  12 gf:K08  12 K08  12 K08  12 K08  12 K08  12 K08  12 K08  12 K08   hfs:P,P Co",3p6.3d8.(3F).4p y4F*,3p6.3d7.4s.(3F).5s h4F,0.5,1.0,1.0
Co 1,4794.2344,-2.676,4.071871943293596,4.5,6.657259659360856,3.5,1.31,1.28,1.37,8.42,-5.07,-7.53,0.016,"_          Kurucz CoI 2008   12 wl:K08  12 gf:K08  12 K08  12 K08  12 K08  12 K08  12 K08  12 K08  12 K08   hfs:P,P Co",3p6.3d8.(3F).4p y4F*,3p6.3d7.4s.(3F).5s h4F,0.5,1.0,1.0
Co 1,4794.2375,-3.196,4.071857723669972,4.5,6.657243765950567,3.5,1.31,1.28,1.37,8.42,-5.07,-7.53,0.016,"_          Kurucz CoI 2008   12 wl:K08  12 gf:K08  12 K08  12 K08  12 K08  12 K08  12 K08  12 K08  12 K08   hfs:P,P Co",3p6.3d8.(3F).4p y4F*,3p6.3d7.4s.(3F).5s h4F,0.5,1.0,1.0
Co 1,4794.2401,-2.822,4.071865949525537,4.5,6.657250577394408,3.5,1.31,1.28,1.37,8.42,-5.07,-7.53,0.016,"_          Kurucz CoI 2008   12 wl:K08  12 gf:K08  12 K08  12 K08  12 K08  12 K08  12 K08  12 K08  12 K08   hfs:P,P Co",3p6.3d8.(3F).4p y4F*,3p6.3d7.4s.(3F).5s h4F,0.5,1.0,1.0
Co 1,4794.2416,-3.392,4.071855408885005,4.5,6.657239225029334,3.5,1.31,1.28,1.37,8.42,-5.07,-7.53,0.016,"_          Kurucz CoI 2008   12 wl:K08  12 gf:K08  12 K08  12 K08  12 K08  12 K08  12 K08  12 K08  12 K08   hfs:P,P Co",3p6.3d8.(3F).4p y4F*,3p6.3d7.4s.(3F).5s h4F,0.5,1.0,1.0
Co 1,4794.244,-2.992,4.071861225479645,4.5,6.657243765950567,3.5,1.31,1.28,1.37,8.42,-5.07,-7.53,0.016,"_          Kurucz CoI 2008   12 wl:K08  12 gf:K08  12 K08  12 K08  12 K08  12 K08  12 K08  12 K08  12 K08   hfs:P,P Co",3p6.3d8.(3F).4p y4F*,3p6.3d7.4s.(3F).5s h4F,0.5,1.0,1.0
Co 1,4794.2459,-3.4589999999999996,4.071855408885005,4.5,6.657236954506726,3.5,1.31,1.28,1.37,8.42,-5.07,-7.53,0.016,"_          Kurucz CoI 2008   12 wl:K08  12 gf:K08  12 K08  12 K08  12 K08  12 K08  12 K08  12 K08  12 K08   hfs:P,P Co",3p6.3d8.(3F).4p y4F*,3p6.3d7.4s.(3F).5s h4F,0.5,1.0,1.0
Co 1,4794.2459,-3.196,4.071857723669972,4.5,6.657239225029334,3.5,1.31,1.28,1.37,8.42,-5.07,-7.53,0.016,"_          Kurucz CoI 2008   12 wl:K08  12 gf:K08  12 K08  12 K08  12 K08  12 K08  12 K08  12 K08  12 K08   hfs:P,P Co",3p6.3d8.(3F).4p y4F*,3p6.3d7.4s.(3F).5s h4F,0.5,1.0,1.0
TiO 1,4794.2657,-0.423,0.9278013113560598,56.0,3.513172205123424,56.0,99.0,99.0,99.0,7.479,0.0,0.0,0.001,_                             6 wl:PPN2012   6 gf:PPN2012   6 PPN2012   6 PPN2012   6 PPN2012   6 PPN2012   6 PPN2012   6 PPN2012   6 PPN2012    (48)TiO,"8s2.9s1.3p4.1d1 X,3,2,-,55,6","8s2.3p4.4p1.1d1 B,3,1,+,55,10",0.5,1.0,1.0
TiO 1,4794.2725,-0.605,0.7307044261366623,71.0,3.3160851890461447,70.0,99.0,99.0,99.0,7.289,0.0,0.0,0.002,_          0.0250387          3 wl:PPN2012   3 gf:PPN2012   3 PPN2012   3 PPN2012   3 PPN2012   3 PPN2012   3 PPN2012   3 PPN2012   3 PPN2012    (46)TiO,"8s2.9s1.3p4.1d1 X,3,2,0,72,3","8s2.11s1.3p4.1d1 C,3,2,0,71,6",0.5,1.0,1.0
Ce 2,4794.2745,-3.36,0.9767881744864327,3.5,3.5621542700653546,3.5,1.2,1.12,1.16,0.0,0.0,0.0,0.001,C 0.001    Ce 2: DREAM data  15 wl:PQWB  15 gf:PQWB  15 PQWB  15 PQWB  15 PQWB  15 PQWB  15 PQWB  15 PQWB  15 PQWB    Ce+,4f.(2F*).5d2.(3P) 4G*,4f.5d.(3F*).6p 4F,0.001,1.0,2.0
TiO 1,4794.292,0.337,1.2656394906530792,99.0,3.8509962874171912,98.0,99.0,99.0,99.0,7.249,0.0,0.0,0.002,_                             6 wl:PPN2012   6 gf:PPN2012   6 PPN2012   6 PPN2012   6 PPN2012   6 PPN2012   6 PPN2012   6 PPN2012   6 PPN2012    (48)TiO,"8s2.9s1.3p4.1d1 X,3,2,0,100,5","8s2.11s1.3p4.1d1 C,3,2,0,99,9",0.5,1.0,1.0
TiO 1,4794.294,0.132,0.743833707930922,61.0,3.329189326845158,62.0,99.0,99.0,99.0,7.292000000000001,0.0,0.0,0.01,_                             6 wl:PPN2012   6 gf:PPN2012   6 PPN2012   6 PPN2012   6 PPN2012   6 PPN2012   6 PPN2012   6 PPN2012   6 PPN2012    (48)TiO,"8s2.9s1.3p4.1d1 X,3,2,0,61,4","8s2.11s1.3p4.1d1 C,3,2,0,62,7",0.5,1.0,1.0
TiO 1,4794.2971,0.154,1.1379438262316839,39.0,3.7232977713592534,38.0,99.0,99.0,99.0,7.365,0.0,0.0,0.002,_                             6 wl:PPN2012   6 gf:PPN2012   6 PPN2012   6 PPN2012   6 PPN2012   6 PPN2012   6 PPN2012   6 PPN2012   6 PPN2012    (48)TiO,"8s2.9s1.3p4.1d1 a,1,2,0,39,5","8s2.11s1.3p4.1d1 f,1,2,0,38,8",0.5,1.0,1.0
TiO 1,4794.2975,-0.809,0.14478945251554018,42.0,2.730193152501555,41.0,99.0,99.0,99.0,7.319,0.0,0.0,0.011000000000000001,_          0.0926240          3 wl:PPN2012   3 gf:PPN2012   3 PPN2012   3 PPN2012   3 PPN2012   3 PPN2012   3 PPN2012   3 PPN2012   3 PPN2012    (46)TiO,"8s2.9s1.3p4.1d1 X,3,2,0,43,0","8s2.11s1.3p4.1d1 C,3,2,0,42,2",0.5,1.0,1.0
TiO 1,4794.3087,-0.599,0.7104404241053053,72.0,3.2960970766509985,71.0,99.0,99.0,99.0,7.289,0.0,0.0,0.002,_          0.572783           3 wl:PPN2012   3 gf:PPN2012   3 PPN2012   3 PPN2012   3 PPN2012   3 PPN2012   3 PPN2012   3 PPN2012   3 PPN2012    (46)TiO,"8s2.9s1.3p4.1d1 X,3,2,0,71,3","8s2.11s1.3p4.1d1 C,3,2,0,70,6",0.5,1.0,1.0
MgH 1,4794.3113,-1.6869999999999998,0.1857952792768845,2.5,2.771141537384211,2.5,99.0,99.0,99.0,7.39,0.0,0.0,0.034,_                            18 wl:KMGH  18 gf:KMGH  18 KMGH  18 KMGH  18 KMGH  18 KMGH  18 KMGH  18 KMGH  18 KMGH    (24)MgH,"4s2.5s1 X,2,0,f,3,1","4s2.2p1 A,2,1,e,3,2",0.5,1.0,1.0
TiO 1,4794.3343,-0.6890000000000001,0.2678742934140586,60.0,2.853253419732135,61.0,99.0,99.0,99.0,7.306,0.0,0.0,0.009000000000000001,_          0.0838805          2 wl:PPN2012   2 gf:PPN2012   2 PPN2012   2 PPN2012   2 PPN2012   2 PPN2012   2 PPN2012   2 PPN2012   2 PPN2012    (47)TiO,"8s2.9s1.3p4.1d1 X,3,2,0,61,0","8s2.11s1.3p4.1d1 C,3,2,0,62,2",0.5,1.0,1.0
Fe 1,4794.3536,-4.05,2.4241982933823185,1.0,5.009521738397311,1.0,1.5,1.5,1.5,8.65,-5.89,-7.506,0.735,N D        Kurucz Fe I 2014   5 wl:K14  35 gf:FMW   5 K14   5 K14   5 K14   5 K14   5 K14  25 BPM   5 K14    Fe,3d6.4s2 a3P2,3d6.(5D).4s.4p.(1P*) x5D*,0.5,1.0,1.0
TiO 1,4794.3578,0.495,0.8006145028779211,91.0,3.3857442225843664,90.0,99.0,99.0,99.0,7.272,0.0,0.0,0.019,_          -0.355084          6 wl:PPN2012   6 gf:PPN2012   6 PPN2012   6 PPN2012   6 PPN2012   6 PPN2012   6 PPN2012   6 PPN2012   6 PPN2012    (48)TiO,"8s2.9s1.3p4.1d1 X,3,2,0,91,2","8s2.11s1.3p4.1d1 C,3,2,0,90,5",0.5,1.0,1.0
TiO 1,4794.3675,0.126,0.7500171966081891,60.0,3.3353332397665922,61.0,99.0,99.0,99.0,7.292000000000001,0.0,0.0,0.01,_                             6 wl:PPN2012   6 gf:PPN2012   6 PPN2012   6 PPN2012   6 PPN2012   6 PPN2012   6 PPN2012   6 PPN2012   6 PPN2012    (48)TiO,"8s2.9s1.3p4.1d1 X,3,2,0,61,4","8s2.11s1.3p4.1d1 C,3,2,0,62,7",0.5,1.0,1.0
TiO 1,4794.3734,0.154,0.13616424385013584,43.0,2.721523557493456,42.0,99.0,99.0,99.0,7.319,0.0,0.0,0.105,_          0.0862333          6 wl:PPN2012   6 gf:PPN2012   6 PPN2012   6 PPN2012   6 PPN2012   6 PPN2012   6 PPN2012   6 PPN2012   6 PPN2012    (48)TiO,"8s2.9s1.3p4.1d1 X,3,2,0,43,0","8s2.11s1.3p4.1d1 C,3,2,0,42,2",0.5,1.0,1.0
Ru 1,4794.386,-1.97,1.0632165666692786,3.0,3.648522653896625,2.0,1.42,1.16,1.68,0.0,0.0,0.0,0.131,"E0.02      Ru 1, Ru 2 (VALD  46 wl:WSL  46 gf:WSL  46 WSL  46 WSL  46 WSL  46 WSL  46 WSL  46 WSL  46 WSL    Ru",4d6.5s2 a5D,d7.(a4F).5p z5F*,1.0471285480508996,1.0,1.0
TiO 1,4794.3869,-0.845,0.25008363973961334,60.0,2.8354269718198797,61.0,99.0,99.0,99.0,7.307,0.0,0.0,0.006999999999999999,_          0.0700596          4 wl:PPN2012   4 gf:PPN2012   4 PPN2012   4 PPN2012   4 PPN2012   4 PPN2012   4 PPN2012   4 PPN2012   4 PPN2012    (50)TiO,"8s2.9s1.3p4.1d1 X,3,2,0,60,0","8s2.11s1.3p4.1d1 C,3,2,0,61,2",0.5,1.0,1.0
TiO 1,4794.3979,-0.674,0.2559575274773779,62.0,2.841251129496039,63.0,99.0,99.0,99.0,7.305,0.0,0.0,0.01,_          -0.0112056         2 wl:PPN2012   2 gf:PPN2012   2 PPN2012   2 PPN2012   2 PPN2012   2 PPN2012   2 PPN2012   2 PPN2012   2 PPN2012    (47)TiO,"8s2.9s1.3p4.1d1 X,3,2,0,61,0","8s2.11s1.3p4.1d1 C,3,2,0,62,2",0.5,1.0,1.0
TiO 1,4794.4058,0.019,0.6211124010978057,45.0,3.2064077760904905,44.0,99.0,99.0,99.0,7.303,0.0,0.0,0.012,_                             6 wl:PPN2012   6 gf:PPN2012   6 PPN2012   6 PPN2012   6 PPN2012   6 PPN2012   6 PPN2012   6 PPN2012   6 PPN2012    (48)TiO,"8s2.9s1.3p4.1d1 X,3,2,0,44,4","8s2.11s1.3p4.1d1 C,3,2,0,43,7",0.5,1.0,1.0
TiO 1,4794.4076,0.33,1.2325948379923288,138.0,3.8173256509418336,139.0,99.0,99.0,99.0,7.2,0.0,0.0,0.002,_          -1.04527           6 wl:PPN2012   6 gf:PPN2012   6 PPN2012   6 PPN2012   6 PPN2012   6 PPN2012   6 PPN2012   6 PPN2012   6 PPN2012    (48)TiO,"8s2.9s1.3p4.1d1 X,3,2,0,137,0","8s2.11s1.3p4.1d1 C,3,2,0,138,3",0.5,1.0,1.0
MgH 1,4794.4256,-1.181,0.16821146843907864,15.5,2.7534961064002625,15.5,99.0,99.0,99.0,7.39,0.0,0.0,0.107,_                            18 wl:KMGH  18 gf:KMGH  18 KMGH  18 KMGH  18 KMGH  18 KMGH  18 KMGH  18 KMGH  18 KMGH    (24)MgH,"4s2.5s1 X,2,0,e,15,0","4s2.2p1 A,2,1,f,15,1",0.5,1.0,1.0
MgH 1,4794.4299,-2.136,0.004260840930258393,1.5,2.5895431231916906,2.5,99.0,99.0,99.0,7.39,0.0,0.0,0.023,_                            18 wl:KMGH  18 gf:KMGH  18 KMGH  18 KMGH  18 KMGH  18 KMGH  18 KMGH  18 KMGH  18 KMGH    (24)MgH,"4s2.5s1 X,2,0,f,2,0","4s2.2p1 A,2,1,f,3,1",0.5,1.0,1.0
TiO 1,4794.4405,-1.0090000000000001,0.11669638154599367,42.0,2.7019971622496883,41.0,99.0,99.0,99.0,7.32,0.0,0.0,0.008,_          0.0449222          4 wl:PPN2012   4 gf:PPN2012   4 PPN2012   4 PPN2012   4 PPN2012   4 PPN2012   4 PPN2012   4 PPN2012   4 PPN2012    (50)TiO,"8s2.9s1.3p4.1d1 X,3,2,0,41,0","8s2.11s1.3p4.1d1 C,3,2,0,40,2",0.5,1.0,1.0
MgH 1,4794.4456,-3.031,0.004269271855686361,2.5,2.5895431231916906,2.5,99.0,99.0,99.0,7.39,0.0,0.0,0.003,_                            18 wl:KMGH  18 gf:KMGH  18 KMGH  18 KMGH  18 KMGH  18 KMGH  18 KMGH  18 KMGH  18 KMGH    (24)MgH,"4s2.5s1 X,2,0,e,2,0","4s2.2p1 A,2,1,f,3,1",0.5,1.0,1.0
TiO 1,4794.4541,0.529,1.464773237862195,138.0,4.05667392056878,137.0,99.0,99.0,99.0,7.1979999999999995,0.0,0.0,0.001,_          12.2667            6 wl:PPN2012   6 gf:PPN2012   6 PPN2012   6 PPN2012   6 PPN2012   6 PPN2012   6 PPN2012   6 PPN2012   6 PPN2012    (48)TiO,"8s2.9s1.3p4.1d1 X,3,2,0,137,2","8s2.11s1.3p4.1d1 C,3,2,0,136,6",0.5,1.0,1.0
TiO 1,4794.469,0.35100000000000003,0.7196071585499998,72.0,3.3041338563152096,71.0,99.0,99.0,99.0,7.287999999999999,0.0,0.0,0.018000000000000002,_          -1.36268           6 wl:PPN2012   6 gf:PPN2012   6 PPN2012   6 PPN2012   6 PPN2012   6 PPN2012   6 PPN2012   6 PPN2012   6 PPN2012    (48)TiO,"8s2.9s1.3p4.1d1 X,3,2,0,72,3","8s2.11s1.3p4.1d1 C,3,2,0,71,6",0.5,1.0,1.0
TiO 1,4794.5092,-0.248,1.0805153750323597,61.0,3.665754969534603,60.0,99.0,99.0,99.0,7.268,0.0,0.0,0.001,_                             6 wl:PPN2012   6 gf:PPN2012   6 PPN2012   6 PPN2012   6 PPN2012   6 PPN2012   6 PPN2012   6 PPN2012   6 PPN2012    (48)TiO,"8s2.9s1.3p4.1d1 X,3,2,0,60,7","8s2.11s1.3p4.1d1 C,3,2,0,59,11",0.5,1.0,1.0
TiO 1,4794.5097,0.33899999999999997,1.2612252812705504,100.0,3.8464645410154605,99.0,99.0,99.0,99.0,7.247999999999999,0.0,0.0,0.002,_                             6 wl:PPN2012   6 gf:PPN2012   6 PPN2012   6 PPN2012   6 PPN2012   6 PPN2012   6 PPN2012   6 PPN2012   6 PPN2012    (48)TiO,"8s2.9s1.3p4.1d1 X,3,2,0,100,5","8s2.11s1.3p4.1d1 C,3,2,0,99,9",0.5,1.0,1.0
TiO 1,4794.5188,0.568,1.5519633889542974,134.0,4.121724089534444,133.0,99.0,99.0,99.0,7.202000000000001,0.0,0.0,0.001,_          -28.8705           6 wl:PPN2012   6 gf:PPN2012   6 PPN2012   6 PPN2012   6 PPN2012   6 PPN2012   6 PPN2012   6 PPN2012   6 PPN2012    (48)TiO,"8s2.9s1.3p4.1d1 X,3,2,0,135,3","8s2.11s1.3p4.1d1 C,3,2,0,134,7",0.5,1.0,1.0
TiO 1,4794.5454,0.49700000000000005,1.500824370928979,104.0,4.086044413123282,105.0,99.0,99.0,99.0,7.337999999999999,0.0,0.0,0.001,_                             6 wl:PPN2012   6 gf:PPN2012   6 PPN2012   6 PPN2012   6 PPN2012   6 PPN2012   6 PPN2012   6 PPN2012   6 PPN2012    (48)TiO,"8s2.9s1.3p4.1d1 a,1,2,0,104,3","8s2.11s1.3p4.1d1 f,1,2,0,105,6",0.5,1.0,1.0
TiO 1,4794.5495,0.172,1.3325135911477266,77.0,3.917731401626474,77.0,99.0,99.0,99.0,7.591,0.0,0.0,0.001,_                             6 wl:PPN2012   6 gf:PPN2012   6 PPN2012   6 PPN2012   6 PPN2012   6 PPN2012   6 PPN2012   6 PPN2012   6 PPN2012    (48)TiO,"8s2.9s1.3p4.1d1 X,3,2,-,76,8","8s2.3p4.4p1.1d1 B,3,1,+,76,11",0.5,1.0,1.0
TiO 1,4794.5591,-1.0090000000000001,0.12930729780905045,42.0,2.7145669281576046,41.0,99.0,99.0,99.0,7.32,0.0,0.0,0.008,_          0.0869721          4 wl:PPN2012   4 gf:PPN2012   4 PPN2012   4 PPN2012   4 PPN2012   4 PPN2012   4 PPN2012   4 PPN2012   4 PPN2012    (50)TiO,"8s2.9s1.3p4.1d1 X,3,2,0,42,0","8s2.11s1.3p4.1d1 C,3,2,0,41,2",0.5,1.0,1.0
Mo 1,4794.601,-1.232,3.211871387720407,5.0,5.797061921675711,4.0,1.39,1.3,1.57,0.0,0.0,0.0,0.001,_          Cu 1 - Ba 2 Bell  17 wl:WBb  17 gf:WBb  17 WBb  17 WBb  17 WBb  17 WBb  17 WBb  17 WBb  17 WBb    Mo,4d5.(4F).5s a5F,4d5.(4F).5p v5F*,0.5,1.0,1.0
TiO 1,4794.6012,-0.644,0.8019678523854064,90.0,3.3870481643891597,89.0,99.0,99.0,99.0,7.273,0.0,0.0,0.001,_          -0.203296          8 wl:PPN2012   8 gf:PPN2012   8 PPN2012   8 PPN2012   8 PPN2012   8 PPN2012   8 PPN2012   8 PPN2012   8 PPN2012    (49)TiO,"8s2.9s1.3p4.1d1 X,3,2,0,91,2","8s2.11s1.3p4.1d1 C,3,2,0,90,5",0.5,1.0,1.0
TiO 1,4794.6031,-0.835,0.2574275957083614,59.0,2.842661697710657,60.0,99.0,99.0,99.0,7.307,0.0,0.0,0.006999999999999999,_          0.0838395          8 wl:PPN2012   8 gf:PPN2012   8 PPN2012   8 PPN2012   8 PPN2012   8 PPN2012   8 PPN2012   8 PPN2012   8 PPN2012    (49)TiO,"8s2.9s1.3p4.1d1 X,3,2,0,60,0","8s2.11s1.3p4.1d1 C,3,2,0,61,2",0.5,1.0,1.0
TiO 1,4794.6107,-0.8190000000000001,0.24532161748792147,61.0,2.830500955670194,62.0,99.0,99.0,99.0,7.306,0.0,0.0,0.008,_          -0.0102623         8 wl:PPN2012   8 gf:PPN2012   8 PPN2012   8 PPN2012   8 PPN2012   8 PPN2012   8 PPN2012   8 PPN2012   8 PPN2012    (49)TiO,"8s2.9s1.3p4.1d1 X,3,2,0,60,0","8s2.11s1.3p4.1d1 C,3,2,0,61,2",0.5,1.0,1.0
TiO 1,4794.6189,-0.428,0.8767642207394815,98.0,3.4531412884239425,97.0,99.0,99.0,99.0,7.263999999999999,0.0,0.0,0.002,_          -16.3833           3 wl:PPN2012   3 gf:PPN2012   3 PPN2012   3 PPN2012   3 PPN2012   3 PPN2012   3 PPN2012   3 PPN2012   3 PPN2012    (46)TiO,"8s2.9s1.3p4.1d1 X,3,2,0,97,2","8s2.11s1.3p4.1d1 C,3,2,0,96,5",0.5,1.0,1.0
TiO 1,4794.6265,-0.521,0.9267951919920094,91.0,3.5083205794922203,92.0,99.0,99.0,99.0,7.267,0.0,0.0,0.001,_          -6.78102           3 wl:PPN2012   3 gf:PPN2012   3 PPN2012   3 PPN2012   3 PPN2012   3 PPN2012   3 PPN2012   3 PPN2012   3 PPN2012    (46)TiO,"8s2.9s1.3p4.1d1 X,3,2,0,91,3","8s2.11s1.3p4.1d1 C,3,2,0,92,6",0.5,1.0,1.0
TiO 1,4794.6333,0.34299999999999997,1.1861449519090095,64.0,3.7713175949446187,63.0,99.0,99.0,99.0,7.361000000000001,0.0,0.0,0.003,_                             6 wl:PPN2012   6 gf:PPN2012   6 PPN2012   6 PPN2012   6 PPN2012   6 PPN2012   6 PPN2012   6 PPN2012   6 PPN2012    (48)TiO,"8s2.9s1.3p4.1d1 a,1,2,0,64,4","8s2.11s1.3p4.1d1 f,1,2,0,63,7",0.5,1.0,1.0
TiO 1,4794.6418,0.132,0.1378867315087488,41.0,2.7231054718689776,40.0,99.0,99.0,99.0,7.32,0.0,0.0,0.099,_          0.0939760          6 wl:PPN2012   6 gf:PPN2012   6 PPN2012   6 PPN2012   6 PPN2012   6 PPN2012   6 PPN2012   6 PPN2012   6 PPN2012    (48)TiO,"8s2.9s1.3p4.1d1 X,3,2,0,42,0","8s2.11s1.3p4.1d1 C,3,2,0,41,2",0.5,1.0,1.0
MgH 1,4794.6429,-1.334,0.1981742335048944,5.5,2.783341706399469,5.5,99.0,99.0,99.0,7.39,0.0,0.0,0.07200000000000001,_                            18 wl:KMGH  18 gf:KMGH  18 KMGH  18 KMGH  18 KMGH  18 KMGH  18 KMGH  18 KMGH  18 KMGH    (24)MgH,"4s2.5s1 X,2,0,e,5,1","4s2.2p1 A,2,1,f,5,2",0.5,1.0,1.0
CH 1,4794.644,-2.9789999999999996,0.5214444307786307,9.5,3.1066112837522177,10.5,99.0,99.0,99.0,6.27,0.0,0.0,0.008,_                            37 wl:JLIY  37 gf:JLIY  37 JLIY  37 JLIY  37 JLIY  37 JLIY  37 JLIY  37 JLIY  37 JLIY    (12)CH,"1s2.2s2.3s2.1p1 X,2,1,f,10,1","1s2.2s2.3s1.1p2 A,2,2,f,11,0",0.5,1.0,1.0
TiO 1,4794.6529,-0.924,0.6310194947792734,46.0,3.2161815743612583,45.0,99.0,99.0,99.0,7.303,0.0,0.0,0.001,_                             3 wl:PPN2012   3 gf:PPN2012   3 PPN2012   3 PPN2012   3 PPN2012   3 PPN2012   3 PPN2012   3 PPN2012   3 PPN2012    (46)TiO,"8s2.9s1.3p4.1d1 X,3,2,0,45,4","8s2.11s1.3p4.1d1 C,3,2,0,44,7",0.5,1.0,1.0
TiO 1,4794.6616,-0.8109999999999999,0.7109334224697057,70.0,3.296115674280619,69.0,99.0,99.0,99.0,7.29,0.0,0.0,0.001,_          0.0459728          4 wl:PPN2012   4 gf:PPN2012   4 PPN2012   4 PPN2012   4 PPN2012   4 PPN2012   4 PPN2012   4 PPN2012   4 PPN2012    (50)TiO,"8s2.9s1.3p4.1d1 X,3,2,0,71,3","8s2.11s1.3p4.1d1 C,3,2,0,70,6",0.5,1.0,1.0
TiO 1,4794.6861,0.353,1.280665135544484,61.0,3.865809423394132,62.0,99.0,99.0,99.0,7.355,0.0,0.0,0.002,_                             6 wl:PPN2012   6 gf:PPN2012   6 PPN2012   6 PPN2012   6 PPN2012   6 PPN2012   6 PPN2012   6 PPN2012   6 PPN2012    (48)TiO,"8s2.9s1.3p4.1d1 a,1,2,0,61,5","8s2.11s1.3p4.1d1 f,1,2,0,62,8",0.5,1.0,1.0
TiO 1,4794.7177,-0.65,0.8289505580776697,71.0,3.414077711311227,71.0,99.0,99.0,99.0,7.362,0.0,0.0,0.001,_                             6 wl:PPN2012   6 gf:PPN2012   6 PPN2012   6 PPN2012   6 PPN2012   6 PPN2012   6 PPN2012   6 PPN2012   6 PPN2012    (48)TiO,"8s2.9s1.3p4.1d1 X,3,2,-,71,4","8s2.3p4.4p1.1d1 B,3,1,+,71,8",0.5,1.0,1.0
TiO 1,4794.7191,-0.8320000000000001,0.12988642799543343,44.0,2.7150334806926852,43.0,99.0,99.0,99.0,7.318,0.0,0.0,0.012,_          0.0382917          2 wl:PPN2012   2 gf:PPN2012   2 PPN2012   2 PPN2012   2 PPN2012   2 PPN2012   2 PPN2012   2 PPN2012   2 PPN2012    (47)TiO,"8s2.9s1.3p4.1d1 X,3,2,0,43,0","8s2.11s1.3p4.1d1 C,3,2,0,42,2",0.5,1.0,1.0
Fe 1,4794.7328,-4.567,4.41527874623212,3.0,7.000397741305485,3.0,0.89,1.85,1.37,8.2,-3.73,-7.29,0.002,_          Kurucz Fe I 2014   5 wl:K14   5 gf:K14   5 K14   5 K14   5 K14   5 K14   5 K14   5 K14   5 K14    Fe,3d7.(4F).4p z5G*,3d6.4s.(6D).5d 7P,0.5,1.0,1.0
TiO 1,4794.7462,-0.639,0.7972682065834616,91.0,3.382188603769318,90.0,99.0,99.0,99.0,7.272,0.0,0.0,0.001,_          -0.355084          8 wl:PPN2012   8 gf:PPN2012   8 PPN2012   8 PPN2012   8 PPN2012   8 PPN2012   8 PPN2012   8 PPN2012   8 PPN2012    (49)TiO,"8s2.9s1.3p4.1d1 X,3,2,0,91,2","8s2.11s1.3p4.1d1 C,3,2,0,90,5",0.5,1.0,1.0
TiO 1,4794.7641,-0.934,0.6509977008370421,45.0,3.236099883653229,44.0,99.0,99.0,99.0,7.303,0.0,0.0,0.001,_                             3 wl:PPN2012   3 gf:PPN2012   3 PPN2012   3 PPN2012   3 PPN2012   3 PPN2012   3 PPN2012   3 PPN2012   3 PPN2012    (46)TiO,"8s2.9s1.3p4.1d1 X,3,2,0,46,4","8s2.11s1.3p4.1d1 C,3,2,0,45,7",0.5,1.0,1.0
TiO 1,4794.7692,-0.644,0.7076174031162684,72.0,3.2930256161270712,71.0,99.0,99.0,99.0,7.289,0.0,0.0,0.002,_          0.572783           2 wl:PPN2012   2 gf:PPN2012   2 PPN2012   2 PPN2012   2 PPN2012   2 PPN2012   2 PPN2012   2 PPN2012   2 PPN2012    (47)TiO,"8s2.9s1.3p4.1d1 X,3,2,0,71,3","8s2.11s1.3p4.1d1 C,3,2,0,70,6",0.5,1.0,1.0
TiO 1,4794.7765,-0.674,0.26998470282971615,62.0,2.855116530267518,63.0,99.0,99.0,99.0,7.305,0.0,0.0,0.01,_          0.0673638          2 wl:PPN2012   2 gf:PPN2012   2 PPN2012   2 PPN2012   2 PPN2012   2 PPN2012   2 PPN2012   2 PPN2012   2 PPN2012    (47)TiO,"8s2.9s1.3p4.1d1 X,3,2,0,62,0","8s2.11s1.3p4.1d1 C,3,2,0,63,2",0.5,1.0,1.0
TiO 1,4794.786,0.418,0.8894583551958802,87.0,3.474189713675854,88.0,99.0,99.0,99.0,7.271,0.0,0.0,0.011000000000000001,_          -0.665931          6 wl:PPN2012   6 gf:PPN2012   6 PPN2012   6 PPN2012   6 PPN2012   6 PPN2012   6 PPN2012   6 PPN2012   6 PPN2012    (48)TiO,"8s2.9s1.3p4.1d1 X,3,2,0,88,3","8s2.11s1.3p4.1d1 C,3,2,0,89,6",0.5,1.0,1.0