species,wlcent,gflog,excit,j_lo,e_upp,j_up,lande_lower,lande_upper,lande,gamrad,gamqst,gamvw,depth,reference,term_lower,term_upper,error,atom_number,ionization
TiO 1,4731.2262,0.264,1.1612927906660728,86.0,3.781110982718587,87.0,99.0,99.0,99.0,7.359,0.0,0.0,0.003,_                             6 wl:PPN2012   6 gf:PPN2012   6 PPN2012   6 PPN2012   6 PPN2012   6 PPN2012   6 PPN2012   6 PPN2012   6 PPN2012    (48)TiO,"8s2.9s1.3p4.1d1 a,1,2,0,86,2","8s2.11s1.3p4.1d1 f,1,2,0,87,5",0.5,1.0,1.0
MgH 1,4731.2317,-1.315,0.3194110651432811,21.5,2.939226169989278,22.5,99.0,99.0,99.0,7.39,0.0,0.0,0.05,_                            18 wl:KMGH  18 gf:KMGH  18 KMGH  18 KMGH  18 KMGH  18 KMGH  18 KMGH  18 KMGH  18 KMGH    (24)MgH,"4s2.5s1 X,2,0,e,21,0","4s2.2p1 A,2,1,e,22,1",0.5,1.0,1.0
Cr 1,4731.2337,-3.177,3.5561401685986715,2.0,6.175954157586891,3.0,1.19,1.77,2.36,8.35,-5.02,-7.48,0.013999999999999999,_          Kurucz Cr I 2016  10 wl:K16  10 gf:K16  10 K16  10 K16  10 K16  10 K16  10 K16  10 K16  10 K16    Cr,3d5.(4D).4s a3D,3d5.(4D).4p t5P*,0.5,1.0,1.0
V 1,4731.2432,-2.081,2.331522363153682,0.5,4.951331119388847,1.5,0.67,1.1,1.21,8.26,-6.09,-7.68,0.27699999999999997,"_          Wisconsin Sc-Mn_  24 wl:LWDFSC  24 gf:LWDFSC  24 LWDFSC  24 LWDFSC  19 K09  19 K09  19 K09  19 K09  19 K09   hfs:PBAG,GEOB V",3d4.(3P2).4s b2P,3d4.(a3F).4p s4D*,0.5,1.0,1.0
TiO 1,4731.246,-0.752,0.5167339611562468,47.0,3.136988404005979,48.0,99.0,99.0,99.0,7.305,0.0,0.0,0.003,_          0.807421           3 wl:PPN2012   3 gf:PPN2012   3 PPN2012   3 PPN2012   3 PPN2012   3 PPN2012   3 PPN2012   3 PPN2012   3 PPN2012    (46)TiO,"8s2.9s1.3p4.1d1 X,3,2,0,46,3","8s2.11s1.3p4.1d1 C,3,2,0,47,6",0.5,1.0,1.0
TiO 1,4731.2498,-0.47200000000000003,0.7339544858970455,86.0,3.3473494162328046,87.0,99.0,99.0,99.0,7.276,0.0,0.0,0.003,_          -11.6052           3 wl:PPN2012   3 gf:PPN2012   3 PPN2012   3 PPN2012   3 PPN2012   3 PPN2012   3 PPN2012   3 PPN2012   3 PPN2012    (46)TiO,"8s2.9s1.3p4.1d1 X,3,2,0,85,2","8s2.11s1.3p4.1d1 C,3,2,0,86,5",0.5,1.0,1.0
V 1,4731.2504,-1.614,2.3315337792466324,0.5,4.951338563648032,1.5,0.67,1.1,1.21,8.26,-6.09,-7.68,0.27699999999999997,"_          Wisconsin Sc-Mn_  24 wl:LWDFSC  24 gf:LWDFSC  24 LWDFSC  24 LWDFSC  19 K09  19 K09  19 K09  19 K09  19 K09   hfs:PBAG,GEOB V",3d4.(3P2).4s b2P,3d4.(a3F).4p s4D*,0.5,1.0,1.0
V 1,4731.254,-1.935,2.331522363153682,0.5,4.9513251640558895,1.5,0.67,1.1,1.21,8.26,-6.09,-7.68,0.27699999999999997,"_          Wisconsin Sc-Mn_  24 wl:LWDFSC  24 gf:LWDFSC  24 LWDFSC  24 LWDFSC  19 K09  19 K09  19 K09  19 K09  19 K09   hfs:PBAG,GEOB V",3d4.(3P2).4s b2P,3d4.(a3F).4p s4D*,0.5,1.0,1.0
TiO 1,4731.2591,-0.825,0.5069775330715448,60.0,3.1267204047240957,59.0,99.0,99.0,99.0,7.301,0.0,0.0,0.003,_          -0.103231          4 wl:PPN2012   4 gf:PPN2012   4 PPN2012   4 PPN2012   4 PPN2012   4 PPN2012   4 PPN2012   4 PPN2012   4 PPN2012    (50)TiO,"8s2.9s1.3p4.1d1 X,3,2,0,61,2","8s2.11s1.3p4.1d1 C,3,2,0,60,5",0.5,1.0,1.0
V 1,4731.2621,-1.956,2.331522363153682,0.5,4.951320697525176,1.5,0.67,1.1,1.21,8.26,-6.09,-7.68,0.27699999999999997,"_          Wisconsin Sc-Mn_  24 wl:LWDFSC  24 gf:LWDFSC  24 LWDFSC  24 LWDFSC  19 K09  19 K09  19 K09  19 K09  19 K09   hfs:PBAG,GEOB V",3d4.(3P2).4s b2P,3d4.(a3F).4p s4D*,0.5,1.0,1.0
V 1,4731.2638,-1.935,2.3315337792466324,0.5,4.951331119388847,1.5,0.67,1.1,1.21,8.26,-6.09,-7.68,0.27699999999999997,"_          Wisconsin Sc-Mn_  24 wl:LWDFSC  24 gf:LWDFSC  24 LWDFSC  24 LWDFSC  19 K09  19 K09  19 K09  19 K09  19 K09   hfs:PBAG,GEOB V",3d4.(3P2).4s b2P,3d4.(a3F).4p s4D*,0.5,1.0,1.0
V 1,4731.2746,-2.412,2.3315337792466324,0.5,4.9513251640558895,1.5,0.67,1.1,1.21,8.26,-6.09,-7.68,0.27699999999999997,"_          Wisconsin Sc-Mn_  24 wl:LWDFSC  24 gf:LWDFSC  24 LWDFSC  24 LWDFSC  19 K09  19 K09  19 K09  19 K09  19 K09   hfs:PBAG,GEOB V",3d4.(3P2).4s b2P,3d4.(a3F).4p s4D*,0.5,1.0,1.0
TiO 1,4731.2754,-1.209,0.41128801727447023,26.0,3.0318102535923184,25.0,99.0,99.0,99.0,7.315,0.0,0.0,0.001,_          1.32035            4 wl:PPN2012   4 gf:PPN2012   4 PPN2012   4 PPN2012   4 PPN2012   4 PPN2012   4 PPN2012   4 PPN2012   4 PPN2012    (50)TiO,"8s2.9s1.3p4.1d1 X,3,2,0,25,3","8s2.11s1.3p4.1d1 C,3,2,0,24,6",0.5,1.0,1.0
TiO 1,4731.2858,-1.179,0.43017247193741676,28.0,3.0496877829939306,27.0,99.0,99.0,99.0,7.315,0.0,0.0,0.001,_          -0.487491          4 wl:PPN2012   4 gf:PPN2012   4 PPN2012   4 PPN2012   4 PPN2012   4 PPN2012   4 PPN2012   4 PPN2012   4 PPN2012    (50)TiO,"8s2.9s1.3p4.1d1 X,3,2,0,28,3","8s2.11s1.3p4.1d1 C,3,2,0,27,6",0.5,1.0,1.0
MgH 1,4731.3014,-1.067,0.45913183289310683,19.5,3.0789083786536904,20.5,99.0,99.0,99.0,7.39,0.0,0.0,0.054000000000000006,_                            18 wl:KMGH  18 gf:KMGH  18 KMGH  18 KMGH  18 KMGH  18 KMGH  18 KMGH  18 KMGH  18 KMGH    (24)MgH,"4s2.5s1 X,2,0,f,20,1","4s2.2p1 A,2,1,f,21,2",0.5,1.0,1.0
Ru 1,4731.336,-1.4,1.1308139909719666,4.0,3.7505715671503377,4.0,1.25,1.66,1.46,0.0,0.0,0.0,0.312,"E0.02      Ru 1, Ru 2 (VALD  46 wl:WSL  46 gf:WSL  46 WSL  46 WSL  46 WSL  46 WSL  46 WSL  46 WSL  46 WSL    Ru",4d8 b3F,d6.5s.(a6D).5p z7P*,1.0471285480508996,1.0,1.0
TiO 1,4731.3426,0.32799999999999996,1.1479064896304576,92.0,3.7676601851034475,93.0,99.0,99.0,99.0,7.255,0.0,0.0,0.003,_                             6 wl:PPN2012   6 gf:PPN2012   6 PPN2012   6 PPN2012   6 PPN2012   6 PPN2012   6 PPN2012   6 PPN2012   6 PPN2012    (48)TiO,"8s2.9s1.3p4.1d1 X,3,2,0,91,5","8s2.11s1.3p4.1d1 C,3,2,0,92,9",0.5,1.0,1.0
TiO 1,4731.3546,-1.175,0.4158426759558934,27.0,3.0362971177145646,26.0,99.0,99.0,99.0,7.315,0.0,0.0,0.002,_          1.27719            8 wl:PPN2012   8 gf:PPN2012   8 PPN2012   8 PPN2012   8 PPN2012   8 PPN2012   8 PPN2012   8 PPN2012   8 PPN2012    (49)TiO,"8s2.9s1.3p4.1d1 X,3,2,0,26,3","8s2.11s1.3p4.1d1 C,3,2,0,25,6",0.5,1.0,1.0
TiO 1,4731.3595,0.064,1.0334536269345256,66.0,3.653197973999026,67.0,99.0,99.0,99.0,7.274,0.0,0.0,0.003,_                             6 wl:PPN2012   6 gf:PPN2012   6 PPN2012   6 PPN2012   6 PPN2012   6 PPN2012   6 PPN2012   6 PPN2012   6 PPN2012    (48)TiO,"8s2.9s1.3p4.1d1 X,3,2,0,67,6","8s2.11s1.3p4.1d1 C,3,2,0,68,10",0.5,1.0,1.0
Hf 2,4731.36,-1.29,2.153465407912969,2.5,4.773209345829618,3.5,1.27,1.04,0.76,0.0,0.0,0.0,0.005,E 0.06     Lund exp.          7 wl:LNWLX  11 gf:LDLS  11 LDLS  11 LDLS  11 LDLS  11 LDLS  11 LDLS  11 LDLS  11 LDLS    Hf+,5d2.(b1D).6s a2D,5d2.(a3F).6p z4G*,1.1481536214968828,1.0,2.0
Cr 1,4731.3614,-1.181,4.158690225978558,2.0,6.778433543974219,1.0,1.5,1.26,1.62,8.02,-5.34,-7.51,0.153,_      A   Kurucz Cr I 2016  10 wl:K16  10 gf:K16  10 K16  10 K16  10 K16  10 K16  10 K16  10 K16  10 K16    Cr,3d4.(5D).4s.4p.(3P*) z5D*,3d4.4s.5s g5D,0.5,1.0,1.0
TiO 1,4731.3653,0.465,0.7923064829849047,100.0,3.4119703519068274,101.0,99.0,99.0,99.0,7.261,0.0,0.0,0.018000000000000002,_          -0.139459          6 wl:PPN2012   6 gf:PPN2012   6 PPN2012   6 PPN2012   6 PPN2012   6 PPN2012   6 PPN2012   6 PPN2012   6 PPN2012    (48)TiO,"8s2.9s1.3p4.1d1 X,3,2,0,100,1","8s2.11s1.3p4.1d1 C,3,2,0,101,4",0.5,1.0,1.0
TiO 1,4731.3779,-0.62,0.6090092125218088,83.0,3.228714764930921,82.0,99.0,99.0,99.0,7.2829999999999995,0.0,0.0,0.003,_          -0.0517199         2 wl:PPN2012   2 gf:PPN2012   2 PPN2012   2 PPN2012   2 PPN2012   2 PPN2012   2 PPN2012   2 PPN2012   2 PPN2012    (47)TiO,"8s2.9s1.3p4.1d1 X,3,2,0,84,1","8s2.11s1.3p4.1d1 C,3,2,0,83,4",0.5,1.0,1.0
TiO 1,4731.3837,0.073,1.0218821321909595,68.0,3.641613138555812,69.0,99.0,99.0,99.0,7.273,0.0,0.0,0.003,_                             6 wl:PPN2012   6 gf:PPN2012   6 PPN2012   6 PPN2012   6 PPN2012   6 PPN2012   6 PPN2012   6 PPN2012   6 PPN2012    (48)TiO,"8s2.9s1.3p4.1d1 X,3,2,0,67,6","8s2.11s1.3p4.1d1 C,3,2,0,68,10",0.5,1.0,1.0
TiO 1,4731.384,0.387,0.5964572383462293,85.0,3.215391299086584,84.0,99.0,99.0,99.0,7.282,0.0,0.0,0.032,_          -1.43963           6 wl:PPN2012   6 gf:PPN2012   6 PPN2012   6 PPN2012   6 PPN2012   6 PPN2012   6 PPN2012   6 PPN2012   6 PPN2012    (48)TiO,"8s2.9s1.3p4.1d1 X,3,2,0,84,1","8s2.11s1.3p4.1d1 C,3,2,0,83,4",0.5,1.0,1.0
TiO 1,4731.388,-0.951,0.45518630857385445,30.0,3.0750853259246993,29.0,99.0,99.0,99.0,7.314,0.0,0.0,0.002,_          0.307759           3 wl:PPN2012   3 gf:PPN2012   3 PPN2012   3 PPN2012   3 PPN2012   3 PPN2012   3 PPN2012   3 PPN2012   3 PPN2012    (46)TiO,"8s2.9s1.3p4.1d1 X,3,2,0,31,3","8s2.11s1.3p4.1d1 C,3,2,0,30,6",0.5,1.0,1.0
TiO 1,4731.3955,-0.55,0.6714011478952939,79.0,3.291029222579407,80.0,99.0,99.0,99.0,7.2829999999999995,0.0,0.0,0.002,_          -0.174038          2 wl:PPN2012   2 gf:PPN2012   2 PPN2012   2 PPN2012   2 PPN2012   2 PPN2012   2 PPN2012   2 PPN2012   2 PPN2012    (47)TiO,"8s2.9s1.3p4.1d1 X,3,2,0,79,2","8s2.11s1.3p4.1d1 C,3,2,0,80,5",0.5,1.0,1.0
TiO 1,4731.4006,0.536,1.5236100627558415,139.0,4.1396555520619565,140.0,99.0,99.0,99.0,7.191,0.0,0.0,0.001,_          -6.64871           6 wl:PPN2012   6 gf:PPN2012   6 PPN2012   6 PPN2012   6 PPN2012   6 PPN2012   6 PPN2012   6 PPN2012   6 PPN2012    (48)TiO,"8s2.9s1.3p4.1d1 X,3,2,0,140,2","8s2.11s1.3p4.1d1 C,3,2,0,141,6",0.5,1.0,1.0
TiO 1,4731.404,-1.146,0.4350625202714163,29.0,3.054519199200947,28.0,99.0,99.0,99.0,7.314,0.0,0.0,0.001,_          -0.475235          8 wl:PPN2012   8 gf:PPN2012   8 PPN2012   8 PPN2012   8 PPN2012   8 PPN2012   8 PPN2012   8 PPN2012   8 PPN2012    (49)TiO,"8s2.9s1.3p4.1d1 X,3,2,0,29,3","8s2.11s1.3p4.1d1 C,3,2,0,28,6",0.5,1.0,1.0
TiO 1,4731.4079,0.242,0.9070319869310738,118.0,3.5265416691050224,119.0,99.0,99.0,99.0,7.236000000000001,0.0,0.0,0.006999999999999999,_          -0.375630          6 wl:PPN2012   6 gf:PPN2012   6 PPN2012   6 PPN2012   6 PPN2012   6 PPN2012   6 PPN2012   6 PPN2012   6 PPN2012    (48)TiO,"8s2.9s1.3p4.1d1 X,3,2,0,117,0","8s2.11s1.3p4.1d1 C,3,2,0,118,3",0.5,1.0,1.0
TiO 1,4731.4144,-0.473,0.822130187374838,103.0,3.439394912482035,104.0,99.0,99.0,99.0,7.257000000000001,0.0,0.0,0.002,_          -4.42766           3 wl:PPN2012   3 gf:PPN2012   3 PPN2012   3 PPN2012   3 PPN2012   3 PPN2012   3 PPN2012   3 PPN2012   3 PPN2012    (46)TiO,"8s2.9s1.3p4.1d1 X,3,2,0,102,1","8s2.11s1.3p4.1d1 C,3,2,0,103,4",0.5,1.0,1.0
TiO 1,4731.4253,-0.009000000000000001,0.9070660453901188,53.0,3.5267740154910814,52.0,99.0,99.0,99.0,7.284,0.0,0.0,0.004,_                             6 wl:PPN2012   6 gf:PPN2012   6 PPN2012   6 PPN2012   6 PPN2012   6 PPN2012   6 PPN2012   6 PPN2012   6 PPN2012    (48)TiO,"8s2.9s1.3p4.1d1 X,3,2,0,52,6","8s2.11s1.3p4.1d1 C,3,2,0,51,10",0.5,1.0,1.0
TiO 1,4731.4329,-1.01,0.4498952953452365,29.0,3.0697688835371797,28.0,99.0,99.0,99.0,7.314,0.0,0.0,0.002,_          0.306698           2 wl:PPN2012   2 gf:PPN2012   2 PPN2012   2 PPN2012   2 PPN2012   2 PPN2012   2 PPN2012   2 PPN2012   2 PPN2012    (47)TiO,"8s2.9s1.3p4.1d1 X,3,2,0,30,3","8s2.11s1.3p4.1d1 C,3,2,0,29,6",0.5,1.0,1.0
TiO 1,4731.4387,-0.025,0.4206070291104977,28.0,3.0409920273201663,27.0,99.0,99.0,99.0,7.315,0.0,0.0,0.024,_          1.23594            6 wl:PPN2012   6 gf:PPN2012   6 PPN2012   6 PPN2012   6 PPN2012   6 PPN2012   6 PPN2012   6 PPN2012   6 PPN2012    (48)TiO,"8s2.9s1.3p4.1d1 X,3,2,0,27,3","8s2.11s1.3p4.1d1 C,3,2,0,26,6",0.5,1.0,1.0
Mo 1,4731.441,0.22,2.622747331116165,4.0,5.242446138784935,5.0,1.05,99.0,99.0,0.0,0.0,0.0,0.24600000000000002,_          Cu 1 - Ba 2 Bell  17 wl:WBb  17 gf:WBb  17 WBb  17 WBb  17 WBb  17 WBb  17 WBb  17 WBb  17 WBb    Mo,4d5.(4G).5s a3G,4d5.(4G).5p z3H*,0.5,1.0,1.0
Fe 2,4731.4476,-3.0,2.8910182623763503,2.5,5.510713846455986,3.5,2.0,1.4,0.66,8.56,-6.53,-7.875,0.408,_          Kurucz FeII 2013  20 wl:K13  31 gf:BGHR  20 K13  20 K13  20 K13  20 K13  20 K13  25 BA-J  20 K13    Fe+,3d5.4s2 a6S,3d6.(5D).4p z4D*,0.5,1.0,2.0
TiO 1,4731.4573,-0.679,0.7937626277905124,102.0,3.411114241023296,103.0,99.0,99.0,99.0,7.257999999999999,0.0,0.0,0.001,_          -4.22770           4 wl:PPN2012   4 gf:PPN2012   4 PPN2012   4 PPN2012   4 PPN2012   4 PPN2012   4 PPN2012   4 PPN2012   4 PPN2012    (50)TiO,"8s2.9s1.3p4.1d1 X,3,2,0,101,1","8s2.11s1.3p4.1d1 C,3,2,0,102,4",0.5,1.0,1.0
TiO 1,4731.4728,-0.028999999999999998,0.4448330577577904,28.0,3.064683919646338,27.0,99.0,99.0,99.0,7.315,0.0,0.0,0.022000000000000002,_          0.305598           6 wl:PPN2012   6 gf:PPN2012   6 PPN2012   6 PPN2012   6 PPN2012   6 PPN2012   6 PPN2012   6 PPN2012   6 PPN2012    (48)TiO,"8s2.9s1.3p4.1d1 X,3,2,0,29,3","8s2.11s1.3p4.1d1 C,3,2,0,28,6",0.5,1.0,1.0
TiO 1,4731.4891,-0.603,0.5248023443923931,63.0,3.1444175371183887,62.0,99.0,99.0,99.0,7.2989999999999995,0.0,0.0,0.004,_          -0.103751          3 wl:PPN2012   3 gf:PPN2012   3 PPN2012   3 PPN2012   3 PPN2012   3 PPN2012   3 PPN2012   3 PPN2012   3 PPN2012    (46)TiO,"8s2.9s1.3p4.1d1 X,3,2,0,63,2","8s2.11s1.3p4.1d1 C,3,2,0,62,5",0.5,1.0,1.0
Fe 1,4731.4901,-1.4240000000000002,3.6863894115511613,1.0,6.306061438633278,2.0,2.49,1.8,1.46,8.3,-5.38,-7.54,0.818,_          Kurucz Fe I 2014   5 wl:K14   5 gf:K14   5 K14   5 K14   5 K14   5 K14   5 K14   5 K14   5 K14    Fe,3d6.(5D).4s.4p.(3P*) z5P*,3d6.(5D).4s\ (6D).4d e7P,0.5,1.0,1.0
TiO 1,4731.5059,-0.555,0.6765713881171561,78.0,3.296165515928002,79.0,99.0,99.0,99.0,7.284,0.0,0.0,0.003,_          -0.124933          2 wl:PPN2012   2 gf:PPN2012   2 PPN2012   2 PPN2012   2 PPN2012   2 PPN2012   2 PPN2012   2 PPN2012   2 PPN2012    (47)TiO,"8s2.9s1.3p4.1d1 X,3,2,0,79,2","8s2.11s1.3p4.1d1 C,3,2,0,80,5",0.5,1.0,1.0
TiO 1,4731.515,-1.179,0.4399838994121165,27.0,3.059810844748972,26.0,99.0,99.0,99.0,7.315,0.0,0.0,0.002,_          0.304482           8 wl:PPN2012   8 gf:PPN2012   8 PPN2012   8 PPN2012   8 PPN2012   8 PPN2012   8 PPN2012   8 PPN2012   8 PPN2012    (49)TiO,"8s2.9s1.3p4.1d1 X,3,2,0,28,3","8s2.11s1.3p4.1d1 C,3,2,0,27,6",0.5,1.0,1.0
V 1,4731.5181,-3.529,1.9306539578731454,2.5,4.5503105280933305,2.5,1.54,1.13,1.34,7.37,-6.12,-7.77,0.14,"_          Kurucz V I 2009   19 wl:K09  19 gf:K09  19 K09  19 K09  19 K09  19 K09  19 K09  19 K09  19 K09   hfs:UBDE,GEOB V",3d4.(3P2).4s b4P,3d3.(4P).4s.4p.(3P*) x2D*,0.5,1.0,1.0
V 1,4731.5217,-3.255,2.122239780354555,3.5,4.741894345626284,3.5,0.96,0.67,0.82,8.13,-6.06,-7.76,0.193,"_          Kurucz V I 2009   19 wl:K09  19 gf:K09  19 K09  19 K09  19 K09  19 K09  19 K09  19 K09  19 K09   hfs:UBDE,GYDE V",3d4.(3G).4s a4G,3d4.(3H).4p x4H*,0.5,1.0,1.0
V 1,4731.5219,-3.784,1.9306539578731454,2.5,4.5503083775874265,2.5,1.54,1.13,1.34,7.37,-6.12,-7.77,0.14,"_          Kurucz V I 2009   19 wl:K09  19 gf:K09  19 K09  19 K09  19 K09  19 K09  19 K09  19 K09  19 K09   hfs:UBDE,GEOB V",3d4.(3P2).4s b4P,3d3.(4P).4s.4p.(3P*) x2D*,0.5,1.0,1.0
V 1,4731.5224,-3.33,1.9306595913431261,2.5,4.550313753914181,2.5,1.54,1.13,1.34,7.37,-6.12,-7.77,0.14,"_          Kurucz V I 2009   19 wl:K09  19 gf:K09  19 K09  19 K09  19 K09  19 K09  19 K09  19 K09  19 K09   hfs:UBDE,GEOB V",3d4.(3P2).4s b4P,3d3.(4P).4s.4p.(3P*) x2D*,0.5,1.0,1.0
TiO 1,4731.5235,0.003,0.4401685490774088,30.0,3.0595658519747704,29.0,99.0,99.0,99.0,7.314,0.0,0.0,0.024,_          -0.462902          6 wl:PPN2012   6 gf:PPN2012   6 PPN2012   6 PPN2012   6 PPN2012   6 PPN2012   6 PPN2012   6 PPN2012   6 PPN2012    (48)TiO,"8s2.9s1.3p4.1d1 X,3,2,0,30,3","8s2.11s1.3p4.1d1 C,3,2,0,29,6",0.5,1.0,1.0
V 1,4731.5256,-3.051,2.1222329309715504,3.5,4.741885313377498,3.5,0.96,0.67,0.82,8.13,-6.06,-7.76,0.193,"_          Kurucz V I 2009   19 wl:K09  19 gf:K09  19 K09  19 K09  19 K09  19 K09  19 K09  19 K09  19 K09   hfs:UBDE,GYDE V",3d4.(3G).4s a4G,3d4.(3H).4p x4H*,0.5,1.0,1.0
V 1,4731.5282,-5.437,1.9306595913431261,2.5,4.5503105280933305,2.5,1.54,1.13,1.34,7.37,-6.12,-7.77,0.14,"_          Kurucz V I 2009   19 wl:K09  19 gf:K09  19 K09  19 K09  19 K09  19 K09  19 K09  19 K09  19 K09   hfs:UBDE,GEOB V",3d4.(3P2).4s b4P,3d3.(4P).4s.4p.(3P*) x2D*,0.5,1.0,1.0
V 1,4731.5293,-2.986,2.1222272241029243,3.5,4.741877571432256,3.5,0.96,0.67,0.82,8.13,-6.06,-7.76,0.193,"_          Kurucz V I 2009   19 wl:K09  19 gf:K09  19 K09  19 K09  19 K09  19 K09  19 K09  19 K09  19 K09   hfs:UBDE,GYDE V",3d4.(3G).4s a4G,3d4.(3H).4p x4H*,0.5,1.0,1.0
V 1,4731.5299,-3.266,1.9306680409901675,2.5,4.550318055049975,2.5,1.54,1.13,1.34,7.37,-6.12,-7.77,0.14,"_          Kurucz V I 2009   19 wl:K09  19 gf:K09  19 K09  19 K09  19 K09  19 K09  19 K09  19 K09  19 K09   hfs:UBDE,GEOB V",3d4.(3P2).4s b4P,3d3.(4P).4s.4p.(3P*) x2D*,0.5,1.0,1.0
TiO 1,4731.5301,-0.615,0.6040845354014559,84.0,3.223787880891853,83.0,99.0,99.0,99.0,7.2829999999999995,0.0,0.0,0.003,_          0.0965078          2 wl:PPN2012   2 gf:PPN2012   2 PPN2012   2 PPN2012   2 PPN2012   2 PPN2012   2 PPN2012   2 PPN2012   2 PPN2012    (47)TiO,"8s2.9s1.3p4.1d1 X,3,2,0,84,1","8s2.11s1.3p4.1d1 C,3,2,0,83,4",0.5,1.0,1.0
TiO 1,4731.5317,-0.98,0.4924957820576021,44.0,3.1125898017542277,45.0,99.0,99.0,99.0,7.307,0.0,0.0,0.002,_          0.803455           4 wl:PPN2012   4 gf:PPN2012   4 PPN2012   4 PPN2012   4 PPN2012   4 PPN2012   4 PPN2012   4 PPN2012   4 PPN2012    (50)TiO,"8s2.9s1.3p4.1d1 X,3,2,0,43,3","8s2.11s1.3p4.1d1 C,3,2,0,44,6",0.5,1.0,1.0
V 1,4731.5321,-3.529,1.9306595913431261,2.5,4.5503083775874265,2.5,1.54,1.13,1.34,7.37,-6.12,-7.77,0.14,"_          Kurucz V I 2009   19 wl:K09  19 gf:K09  19 K09  19 K09  19 K09  19 K09  19 K09  19 K09  19 K09   hfs:UBDE,GEOB V",3d4.(3P2).4s b4P,3d3.(4P).4s.4p.(3P*) x2D*,0.5,1.0,1.0
TiO 1,4731.5323,-1.006,0.42558009726312324,29.0,3.045891510851593,28.0,99.0,99.0,99.0,7.314,0.0,0.0,0.002,_          1.19657            2 wl:PPN2012   2 gf:PPN2012   2 PPN2012   2 PPN2012   2 PPN2012   2 PPN2012   2 PPN2012   2 PPN2012   2 PPN2012    (47)TiO,"8s2.9s1.3p4.1d1 X,3,2,0,28,3","8s2.11s1.3p4.1d1 C,3,2,0,27,6",0.5,1.0,1.0
V 1,4731.5327,-2.9930000000000003,2.122222659376727,3.5,4.741871119790556,3.5,0.96,0.67,0.82,8.13,-6.06,-7.76,0.193,"_          Kurucz V I 2009   19 wl:K09  19 gf:K09  19 K09  19 K09  19 K09  19 K09  19 K09  19 K09  19 K09   hfs:UBDE,GYDE V",3d4.(3G).4s a4G,3d4.(3H).4p x4H*,0.5,1.0,1.0
V 1,4731.5358,-3.0589999999999997,2.1222192361730343,3.5,4.7418659584524,3.5,0.96,0.67,0.82,8.13,-6.06,-7.76,0.193,"_          Kurucz V I 2009   19 wl:K09  19 gf:K09  19 K09  19 K09  19 K09  19 K09  19 K09  19 K09  19 K09   hfs:UBDE,GYDE V",3d4.(3G).4s a4G,3d4.(3H).4p x4H*,0.5,1.0,1.0
V 1,4731.5361,-2.352,2.122247772871861,3.5,4.741894345626284,3.5,0.96,0.67,0.82,8.13,-6.06,-7.76,0.193,"_          Kurucz V I 2009   19 wl:K09  19 gf:K09  19 K09  19 K09  19 K09  19 K09  19 K09  19 K09  19 K09   hfs:UBDE,GYDE V",3d4.(3G).4s a4G,3d4.(3H).4p x4H*,0.5,1.0,1.0
V 1,4731.5377,-4.194,1.9306680409901675,2.5,4.550313753914181,2.5,1.54,1.13,1.34,7.37,-6.12,-7.77,0.14,"_          Kurucz V I 2009   19 wl:K09  19 gf:K09  19 K09  19 K09  19 K09  19 K09  19 K09  19 K09  19 K09   hfs:UBDE,GEOB V",3d4.(3P2).4s b4P,3d3.(4P).4s.4p.(3P*) x2D*,0.5,1.0,1.0
V 1,4731.538,-2.539,2.122239780354555,3.5,4.741885313377498,3.5,0.96,0.67,0.82,8.13,-6.06,-7.76,0.193,"_          Kurucz V I 2009   19 wl:K09  19 gf:K09  19 K09  19 K09  19 K09  19 K09  19 K09  19 K09  19 K09   hfs:UBDE,GYDE V",3d4.(3G).4s a4G,3d4.(3H).4p x4H*,0.5,1.0,1.0
V 1,4731.5387,-3.197,2.1222169542438802,3.5,4.741862087417785,3.5,0.96,0.67,0.82,8.13,-6.06,-7.76,0.193,"_          Kurucz V I 2009   19 wl:K09  19 gf:K09  19 K09  19 K09  19 K09  19 K09  19 K09  19 K09  19 K09   hfs:UBDE,GYDE V",3d4.(3G).4s a4G,3d4.(3H).4p x4H*,0.5,1.0,1.0
V 1,4731.5396,-2.758,2.1222329309715504,3.5,4.741877571432256,3.5,0.96,0.67,0.82,8.13,-6.06,-7.76,0.193,"_          Kurucz V I 2009   19 wl:K09  19 gf:K09  19 K09  19 K09  19 K09  19 K09  19 K09  19 K09  19 K09   hfs:UBDE,GYDE V",3d4.(3G).4s a4G,3d4.(3H).4p x4H*,0.5,1.0,1.0
TiO 1,4731.5397,0.33399999999999996,0.5185757340112459,61.0,3.138165138024168,60.0,99.0,99.0,99.0,7.3,0.0,0.0,0.038,_          -0.0998352         6 wl:PPN2012   6 gf:PPN2012   6 PPN2012   6 PPN2012   6 PPN2012   6 PPN2012   6 PPN2012   6 PPN2012   6 PPN2012    (48)TiO,"8s2.9s1.3p4.1d1 X,3,2,0,62,2","8s2.11s1.3p4.1d1 C,3,2,0,61,5",0.5,1.0,1.0