species,wlcent,gflog,excit,j_lo,e_upp,j_up,lande_lower,lande_upper,lande,gamrad,gamqst,gamvw,depth,reference,term_lower,term_upper,error,atom_number,ionization
TiO 1,4807.951,0.24600000000000002,0.18669500780108572,53.0,2.764715312445137,52.0,99.0,99.0,99.0,7.313,0.0,0.0,0.107,_          0.0154440          6 wl:PPN2012   6 gf:PPN2012   6 PPN2012   6 PPN2012   6 PPN2012   6 PPN2012   6 PPN2012   6 PPN2012   6 PPN2012    (48)TiO,"8s2.9s1.3p4.1d1 X,3,2,0,52,0","8s2.11s1.3p4.1d1 C,3,2,0,51,2",0.5,1.0,1.0
TiO 1,4807.9598,-0.8290000000000001,0.18168216551791178,29.0,2.7597032512624073,30.0,99.0,99.0,99.0,7.3229999999999995,0.0,0.0,0.009000000000000001,_          0.0256926          3 wl:PPN2012   3 gf:PPN2012   3 PPN2012   3 PPN2012   3 PPN2012   3 PPN2012   3 PPN2012   3 PPN2012   3 PPN2012    (46)TiO,"8s2.9s1.3p4.1d1 X,3,2,0,28,1","8s2.11s1.3p4.1d1 C,3,2,0,29,3",0.5,1.0,1.0
TiO 1,4807.9831,-0.515,0.12749945942889904,7.0,2.705572866504727,6.0,99.0,99.0,99.0,7.332999999999999,0.0,0.0,0.024,_          0.146558           6 wl:PPN2012   6 gf:PPN2012   6 PPN2012   6 PPN2012   6 PPN2012   6 PPN2012   6 PPN2012   6 PPN2012   6 PPN2012    (48)TiO,"8s2.9s1.3p4.1d1 X,3,2,0,6,1","8s2.11s1.3p4.1d1 C,3,2,0,5,3",0.5,1.0,1.0
TiO 1,4807.9834,-0.7140000000000001,0.20863288328722773,52.0,2.7866708060857395,51.0,99.0,99.0,99.0,7.313,0.0,0.0,0.011000000000000001,_          0.0807150          3 wl:PPN2012   3 gf:PPN2012   3 PPN2012   3 PPN2012   3 PPN2012   3 PPN2012   3 PPN2012   3 PPN2012   3 PPN2012    (46)TiO,"8s2.9s1.3p4.1d1 X,3,2,0,53,0","8s2.11s1.3p4.1d1 C,3,2,0,52,2",0.5,1.0,1.0
TiO 1,4807.9851,0.168,0.8255567758355792,69.0,3.4035504610724336,70.0,99.0,99.0,99.0,7.285,0.0,0.0,0.008,_                             6 wl:PPN2012   6 gf:PPN2012   6 PPN2012   6 PPN2012   6 PPN2012   6 PPN2012   6 PPN2012   6 PPN2012   6 PPN2012    (48)TiO,"8s2.9s1.3p4.1d1 X,3,2,0,70,4","8s2.11s1.3p4.1d1 C,3,2,0,71,7",0.5,1.0,1.0
TiO 1,4807.9853,-0.135,0.16502175178760414,16.0,2.743054777210316,17.0,99.0,99.0,99.0,7.327000000000001,0.0,0.0,0.049,_          0.0735403          6 wl:PPN2012   6 gf:PPN2012   6 PPN2012   6 PPN2012   6 PPN2012   6 PPN2012   6 PPN2012   6 PPN2012   6 PPN2012    (48)TiO,"8s2.9s1.3p4.1d1 X,3,2,0,17,1","8s2.11s1.3p4.1d1 C,3,2,0,18,3",0.5,1.0,1.0
TiO 1,4807.995,-1.1640000000000001,0.15298909782154807,21.0,2.730998925800913,22.0,99.0,99.0,99.0,7.3260000000000005,0.0,0.0,0.005,_          0.0400195          4 wl:PPN2012   4 gf:PPN2012   4 PPN2012   4 PPN2012   4 PPN2012   4 PPN2012   4 PPN2012   4 PPN2012   4 PPN2012    (50)TiO,"8s2.9s1.3p4.1d1 X,3,2,0,20,1","8s2.11s1.3p4.1d1 C,3,2,0,21,3",0.5,1.0,1.0
TiO 1,4808.0064,-1.093,0.17410818166759737,24.0,2.752125833049823,25.0,99.0,99.0,99.0,7.325,0.0,0.0,0.005,_          0.0658660          8 wl:PPN2012   8 gf:PPN2012   8 PPN2012   8 PPN2012   8 PPN2012   8 PPN2012   8 PPN2012   8 PPN2012   8 PPN2012    (49)TiO,"8s2.9s1.3p4.1d1 X,3,2,0,24,1","8s2.11s1.3p4.1d1 C,3,2,0,25,3",0.5,1.0,1.0
Gd 1,4808.009,0.016,1.7266424930544053,4.0,4.304623221942624,4.0,1.89,1.98,1.93,0.0,0.0,0.0,0.008,_          La1 to Lu 2 Bell   1 wl:MC   1 gf:MC   1 MC   1 MC   1 MC   1 MC   1 MC   1 MC   1 MC    Gd,4f7.(8S*).6s2.6p 9P,4f7.(8S*).6s2.7s 9S*,0.5,1.0,1.0
TiO 1,4808.0102,0.172,0.8198759438916954,70.0,3.397856238835223,71.0,99.0,99.0,99.0,7.285,0.0,0.0,0.009000000000000001,_                             6 wl:PPN2012   6 gf:PPN2012   6 PPN2012   6 PPN2012   6 PPN2012   6 PPN2012   6 PPN2012   6 PPN2012   6 PPN2012    (48)TiO,"8s2.9s1.3p4.1d1 X,3,2,0,70,4","8s2.11s1.3p4.1d1 C,3,2,0,71,7",0.5,1.0,1.0
TiO 1,4808.0121,-1.74,0.14859108077520872,4.0,2.7265703342514778,4.0,99.0,99.0,99.0,7.324,0.0,0.0,0.001,_                             2 wl:PPN2012   2 gf:PPN2012   2 PPN2012   2 PPN2012   2 PPN2012   2 PPN2012   2 PPN2012   2 PPN2012   2 PPN2012    (47)TiO,"8s2.9s1.3p4.1d1 X,3,2,0,5,1","8s2.11s1.3p4.1d1 C,3,2,0,5,3",0.5,1.0,1.0
TiO 1,4808.0181,-1.7590000000000001,0.13758366453645285,6.0,2.7155759115566167,5.0,99.0,99.0,99.0,7.332999999999999,0.0,0.0,0.001,_          0.0302078          8 wl:PPN2012   8 gf:PPN2012   8 PPN2012   8 PPN2012   8 PPN2012   8 PPN2012   8 PPN2012   8 PPN2012   8 PPN2012    (49)TiO,"8s2.9s1.3p4.1d1 X,3,2,0,6,1","8s2.11s1.3p4.1d1 C,3,2,0,5,3",0.5,1.0,1.0
TiO 1,4808.0208,-1.804,0.1254848897978859,5.0,2.703549816354607,4.0,99.0,99.0,99.0,7.337999999999999,0.0,0.0,0.001,_          0.168519           8 wl:PPN2012   8 gf:PPN2012   8 PPN2012   8 PPN2012   8 PPN2012   8 PPN2012   8 PPN2012   8 PPN2012   8 PPN2012    (49)TiO,"8s2.9s1.3p4.1d1 X,3,2,0,4,1","8s2.11s1.3p4.1d1 C,3,2,0,3,3",0.5,1.0,1.0
TiO 1,4808.0217,-1.399,0.13006631666754281,9.0,2.708108591311386,8.0,99.0,99.0,99.0,7.331,0.0,0.0,0.003,_          0.126964           2 wl:PPN2012   2 gf:PPN2012   2 PPN2012   2 PPN2012   2 PPN2012   2 PPN2012   2 PPN2012   2 PPN2012   2 PPN2012    (47)TiO,"8s2.9s1.3p4.1d1 X,3,2,0,8,1","8s2.11s1.3p4.1d1 C,3,2,0,7,3",0.5,1.0,1.0
TiO 1,4808.0241,-1.035,0.17532998394156674,20.0,2.753342985916387,21.0,99.0,99.0,99.0,7.3260000000000005,0.0,0.0,0.006,_          0.0748742          2 wl:PPN2012   2 gf:PPN2012   2 PPN2012   2 PPN2012   2 PPN2012   2 PPN2012   2 PPN2012   2 PPN2012   2 PPN2012    (47)TiO,"8s2.9s1.3p4.1d1 X,3,2,0,21,1","8s2.11s1.3p4.1d1 C,3,2,0,22,3",0.5,1.0,1.0
TiO 1,4808.0377,0.075,0.18132724835423375,26.0,2.7593294389070344,27.0,99.0,99.0,99.0,7.324,0.0,0.0,0.075,_          0.0683550          6 wl:PPN2012   6 gf:PPN2012   6 PPN2012   6 PPN2012   6 PPN2012   6 PPN2012   6 PPN2012   6 PPN2012   6 PPN2012    (48)TiO,"8s2.9s1.3p4.1d1 X,3,2,0,26,1","8s2.11s1.3p4.1d1 C,3,2,0,27,3",0.5,1.0,1.0
MgH 1,4808.0479,-2.164,0.36054096289103377,4.5,2.938500986418275,3.5,99.0,99.0,99.0,7.06,0.0,0.0,0.006,_                            18 wl:KMGH  18 gf:KMGH  18 KMGH  18 KMGH  18 KMGH  18 KMGH  18 KMGH  18 KMGH  18 KMGH    (24)MgH,"4s2.5s1 X,2,0,e,4,2","4s1.5s2/4s2.7s1/4s2.6s1 B,2,0,e,3,2",0.5,1.0,1.0
MgH 1,4808.0479,-2.276,0.36054096289103377,3.5,2.938500986418275,2.5,99.0,99.0,99.0,7.06,0.0,0.0,0.005,_                            18 wl:KMGH  18 gf:KMGH  18 KMGH  18 KMGH  18 KMGH  18 KMGH  18 KMGH  18 KMGH  18 KMGH    (24)MgH,"4s2.5s1 X,2,0,f,4,2","4s1.5s2/4s2.7s1/4s2.6s1 B,2,0,f,3,2",0.5,1.0,1.0
TiO 1,4808.0486,-0.47600000000000003,0.1398856791308807,8.0,2.7178615602369782,7.0,99.0,99.0,99.0,7.331,0.0,0.0,0.025,_          0.0301973          6 wl:PPN2012   6 gf:PPN2012   6 PPN2012   6 PPN2012   6 PPN2012   6 PPN2012   6 PPN2012   6 PPN2012   6 PPN2012    (48)TiO,"8s2.9s1.3p4.1d1 X,3,2,0,8,1","8s2.11s1.3p4.1d1 C,3,2,0,7,3",0.5,1.0,1.0
TiO 1,4808.0503,-1.147,0.16749627799439193,22.0,2.7454893309118393,23.0,99.0,99.0,99.0,7.3260000000000005,0.0,0.0,0.005,_          0.0639344          4 wl:PPN2012   4 gf:PPN2012   4 PPN2012   4 PPN2012   4 PPN2012   4 PPN2012   4 PPN2012   4 PPN2012   4 PPN2012    (50)TiO,"8s2.9s1.3p4.1d1 X,3,2,0,22,1","8s2.11s1.3p4.1d1 C,3,2,0,23,3",0.5,1.0,1.0
TiO 1,4808.0517,-0.778,0.3351132174097618,70.0,2.9131014597403473,71.0,99.0,99.0,99.0,7.297999999999999,0.0,0.0,0.006,_          0.0563089          4 wl:PPN2012   4 gf:PPN2012   4 PPN2012   4 PPN2012   4 PPN2012   4 PPN2012   4 PPN2012   4 PPN2012   4 PPN2012    (50)TiO,"8s2.9s1.3p4.1d1 X,3,2,0,70,0","8s2.11s1.3p4.1d1 C,3,2,0,71,2",0.5,1.0,1.0
TiO 1,4808.0573,0.34299999999999997,1.3066349895307743,141.0,3.884229259675479,142.0,99.0,99.0,99.0,7.193,0.0,0.0,0.002,_          -0.672871          6 wl:PPN2012   6 gf:PPN2012   6 PPN2012   6 PPN2012   6 PPN2012   6 PPN2012   6 PPN2012   6 PPN2012   6 PPN2012    (48)TiO,"8s2.9s1.3p4.1d1 X,3,2,0,141,0","8s2.11s1.3p4.1d1 C,3,2,0,142,3",0.5,1.0,1.0
TiO 1,4808.0617,-0.6970000000000001,0.195802998533019,54.0,2.7737629352713222,53.0,99.0,99.0,99.0,7.312,0.0,0.0,0.012,_          0.0135010          3 wl:PPN2012   3 gf:PPN2012   3 PPN2012   3 PPN2012   3 PPN2012   3 PPN2012   3 PPN2012   3 PPN2012   3 PPN2012    (46)TiO,"8s2.9s1.3p4.1d1 X,3,2,0,53,0","8s2.11s1.3p4.1d1 C,3,2,0,52,2",0.5,1.0,1.0
TiO 1,4808.0794,-0.622,0.3549395800208889,70.0,2.9329314922837195,71.0,99.0,99.0,99.0,7.297999999999999,0.0,0.0,0.008,_          0.0908004          2 wl:PPN2012   2 gf:PPN2012   2 PPN2012   2 PPN2012   2 PPN2012   2 PPN2012   2 PPN2012   2 PPN2012   2 PPN2012    (47)TiO,"8s2.9s1.3p4.1d1 X,3,2,0,71,0","8s2.11s1.3p4.1d1 C,3,2,0,72,2",0.5,1.0,1.0
Mo 1,4808.081,-1.042,2.9344677804745722,3.0,5.512409702308982,4.0,1.08,1.08,1.07,0.0,0.0,0.0,0.006,_          Cu 1 - Ba 2 Bell  17 wl:WBb  17 gf:WBb  17 WBb  17 WBb  17 WBb  17 WBb  17 WBb  17 WBb  17 WBb    Mo,4d4.5s2 a3F,4d4.5s.(4H).5p y3G*,0.5,1.0,1.0
TiO 1,4808.0824,-0.9309999999999999,0.1846877408393036,23.0,2.762670193107867,24.0,99.0,99.0,99.0,7.325,0.0,0.0,0.006999999999999999,_          0.0762462          3 wl:PPN2012   3 gf:PPN2012   3 PPN2012   3 PPN2012   3 PPN2012   3 PPN2012   3 PPN2012   3 PPN2012   3 PPN2012    (46)TiO,"8s2.9s1.3p4.1d1 X,3,2,0,24,1","8s2.11s1.3p4.1d1 C,3,2,0,25,3",0.5,1.0,1.0
TiO 1,4808.0885,0.379,0.7625847060037116,78.0,3.340807266069096,77.0,99.0,99.0,99.0,7.2829999999999995,0.0,0.0,0.017,_          0.530109           6 wl:PPN2012   6 gf:PPN2012   6 PPN2012   6 PPN2012   6 PPN2012   6 PPN2012   6 PPN2012   6 PPN2012   6 PPN2012    (48)TiO,"8s2.9s1.3p4.1d1 X,3,2,0,77,3","8s2.11s1.3p4.1d1 C,3,2,0,76,6",0.5,1.0,1.0
TiO 1,4808.0999,-0.23199999999999998,1.1429067772737957,67.0,3.720838916755026,66.0,99.0,99.0,99.0,7.263999999999999,0.0,0.0,0.001,_                             6 wl:PPN2012   6 gf:PPN2012   6 PPN2012   6 PPN2012   6 PPN2012   6 PPN2012   6 PPN2012   6 PPN2012   6 PPN2012    (48)TiO,"8s2.9s1.3p4.1d1 X,3,2,0,67,7","8s2.11s1.3p4.1d1 C,3,2,0,66,11",0.5,1.0,1.0
TiO 1,4808.1051,-0.40399999999999997,0.98521965784329,47.0,3.563149119265855,47.0,99.0,99.0,99.0,7.5,0.0,0.0,0.001,_                             6 wl:PPN2012   6 gf:PPN2012   6 PPN2012   6 PPN2012   6 PPN2012   6 PPN2012   6 PPN2012   6 PPN2012   6 PPN2012    (48)TiO,"8s2.9s1.3p4.1d1 X,3,2,-,46,7","8s2.3p4.4p1.1d1 B,3,1,+,46,11",0.5,1.0,1.0
TiO 1,4808.107,0.434,0.9144534330232407,92.0,3.4951586650571866,93.0,99.0,99.0,99.0,7.266,0.0,0.0,0.011000000000000001,_          5.17355            6 wl:PPN2012   6 gf:PPN2012   6 PPN2012   6 PPN2012   6 PPN2012   6 PPN2012   6 PPN2012   6 PPN2012   6 PPN2012    (48)TiO,"8s2.9s1.3p4.1d1 X,3,2,0,91,3","8s2.11s1.3p4.1d1 C,3,2,0,92,6",0.5,1.0,1.0
TiO 1,4808.1221,-1.829,0.14925996312214032,5.0,2.727180212518833,5.0,99.0,99.0,99.0,7.329,0.0,0.0,0.001,_                             2 wl:PPN2012   2 gf:PPN2012   2 PPN2012   2 PPN2012   2 PPN2012   2 PPN2012   2 PPN2012   2 PPN2012   2 PPN2012    (47)TiO,"8s2.9s1.3p4.1d1 X,3,2,0,6,1","8s2.11s1.3p4.1d1 C,3,2,0,6,3",0.5,1.0,1.0
TiO 1,4808.1253,-0.642,0.8582621457399525,95.0,3.4360353126831864,94.0,99.0,99.0,99.0,7.267,0.0,0.0,0.001,_          -0.271265          4 wl:PPN2012   4 gf:PPN2012   4 PPN2012   4 PPN2012   4 PPN2012   4 PPN2012   4 PPN2012   4 PPN2012   4 PPN2012    (50)TiO,"8s2.9s1.3p4.1d1 X,3,2,0,96,2","8s2.11s1.3p4.1d1 C,3,2,0,95,5",0.5,1.0,1.0
TiO 1,4808.1316,-1.265,0.13319813269879874,11.0,2.7111721168466754,10.0,99.0,99.0,99.0,7.33,0.0,0.0,0.004,_          0.109629           3 wl:PPN2012   3 gf:PPN2012   3 PPN2012   3 PPN2012   3 PPN2012   3 PPN2012   3 PPN2012   3 PPN2012   3 PPN2012    (46)TiO,"8s2.9s1.3p4.1d1 X,3,2,0,10,1","8s2.11s1.3p4.1d1 C,3,2,0,9,3",0.5,1.0,1.0
Th 1,4808.134,-1.413,0.6151673092354341,4.0,3.1930812106412167,5.0,1.21,1.14,1.0,0.0,0.0,0.0,0.008,_          Hf 1 - U 2 Bell   36 wl:MC  36 gf:MC  36 MC  36 MC  36 MC  36 MC  36 MC  36 MC  36 MC    Th,6d2.7s2 a3F,* *,0.5,1.0,1.0
TiO 1,4808.1377,-0.9159999999999999,0.19125797342373932,52.0,2.7692120953031814,51.0,99.0,99.0,99.0,7.314,0.0,0.0,0.008,_          0.0787850          4 wl:PPN2012   4 gf:PPN2012   4 PPN2012   4 PPN2012   4 PPN2012   4 PPN2012   4 PPN2012   4 PPN2012   4 PPN2012    (50)TiO,"8s2.9s1.3p4.1d1 X,3,2,0,52,0","8s2.11s1.3p4.1d1 C,3,2,0,51,2",0.5,1.0,1.0
Fe 1,4808.1476,-2.79,3.2514817351439658,3.0,5.829388321482098,3.0,1.34,1.35,1.34,8.2,-5.85,-7.667000000000001,0.7120000000000001,N D        Kurucz Fe I 2014   5 wl:K14  35 gf:FMW   5 K14   5 K14   5 K14   5 K14   5 K14  25 BPM   5 K14    Fe,3d7.(2D2).4s a3D,3d7.(4P).4p w3D*,0.5,1.0,1.0
TiO 1,4808.1498,-0.89,0.1891629380485681,28.0,2.7671065956617436,29.0,99.0,99.0,99.0,7.324,0.0,0.0,0.008,_          0.0713460          2 wl:PPN2012   2 gf:PPN2012   2 PPN2012   2 PPN2012   2 PPN2012   2 PPN2012   2 PPN2012   2 PPN2012   2 PPN2012    (47)TiO,"8s2.9s1.3p4.1d1 X,3,2,0,28,1","8s2.11s1.3p4.1d1 C,3,2,0,29,3",0.5,1.0,1.0
TiO 1,4808.1502,-0.7929999999999999,0.43355405413447623,10.0,3.0114592394511766,9.0,99.0,99.0,99.0,7.412999999999999,0.0,0.0,0.004,_                             6 wl:PPN2012   6 gf:PPN2012   6 PPN2012   6 PPN2012   6 PPN2012   6 PPN2012   6 PPN2012   6 PPN2012   6 PPN2012    (48)TiO,"8s2.9s1.3p4.1d1 a,1,2,0,10,0","8s2.11s1.3p4.1d1 f,1,2,0,9,2",0.5,1.0,1.0
Co 1,4808.1509,-3.56,4.149355991114796,3.5,6.727260798279693,2.5,1.16,0.99,1.37,8.36,-5.36,-7.55,0.055999999999999994,"_          Kurucz CoI 2008   12 wl:K08  12 gf:K08  12 K08  12 K08  12 K08  12 K08  12 K08  12 K08  12 K08   hfs:P,P Co",3p6.3d8.(3F).4p y4G*,3p6.3d7.4s.(3F).5s h4F,0.5,1.0,1.0
TiO 1,4808.1574,-1.119,0.5308744704634927,39.0,3.1087757998716516,40.0,99.0,99.0,99.0,7.405,0.0,0.0,0.001,_                             3 wl:PPN2012   3 gf:PPN2012   3 PPN2012   3 PPN2012   3 PPN2012   3 PPN2012   3 PPN2012   3 PPN2012   3 PPN2012    (46)TiO,"8s2.9s1.3p4.1d1 a,1,2,0,39,0","8s2.11s1.3p4.1d1 f,1,2,0,40,2",0.5,1.0,1.0
TiO 1,4808.1587,-1.365,0.14274959010824317,10.0,2.7206668266889373,9.0,99.0,99.0,99.0,7.33,0.0,0.0,0.003,_          0.0308973          2 wl:PPN2012   2 gf:PPN2012   2 PPN2012   2 PPN2012   2 PPN2012   2 PPN2012   2 PPN2012   2 PPN2012   2 PPN2012    (47)TiO,"8s2.9s1.3p4.1d1 X,3,2,0,10,1","8s2.11s1.3p4.1d1 C,3,2,0,9,3",0.5,1.0,1.0
TiO 1,4808.1612,-0.109,0.16728199610590433,17.0,2.7452209051243166,18.0,99.0,99.0,99.0,7.327000000000001,0.0,0.0,0.052000000000000005,_          0.0738132          6 wl:PPN2012   6 gf:PPN2012   6 PPN2012   6 PPN2012   6 PPN2012   6 PPN2012   6 PPN2012   6 PPN2012   6 PPN2012    (48)TiO,"8s2.9s1.3p4.1d1 X,3,2,0,18,1","8s2.11s1.3p4.1d1 C,3,2,0,19,3",0.5,1.0,1.0
Pr 1,4808.168,-0.73,0.0,4.5,2.577895551744557,3.5,0.73,0.98,0.3,0.0,0.0,0.0,0.017,_          La1 to Lu 2 Bell   1 wl:MC   1 gf:MC   1 MC   1 MC   1 MC   1 MC   1 MC   1 MC   1 MC    Pr,4f3.6s2 4I*, ,0.5,1.0,1.0
Co 1,4808.1688,-2.4459999999999997,4.149365594186828,3.5,6.727260798279693,2.5,1.16,0.99,1.37,8.36,-5.36,-7.55,0.055999999999999994,"_          Kurucz CoI 2008   12 wl:K08  12 gf:K08  12 K08  12 K08  12 K08  12 K08  12 K08  12 K08  12 K08   hfs:P,P Co",3p6.3d8.(3F).4p y4G*,3p6.3d7.4s.(3F).5s h4F,0.5,1.0,1.0
TiO 1,4808.1822,-0.44299999999999995,0.9694754873322866,111.0,3.547121806043089,110.0,99.0,99.0,99.0,7.247999999999999,0.0,0.0,0.001,_          -0.450874          3 wl:PPN2012   3 gf:PPN2012   3 PPN2012   3 PPN2012   3 PPN2012   3 PPN2012   3 PPN2012   3 PPN2012   3 PPN2012    (46)TiO,"8s2.9s1.3p4.1d1 X,3,2,0,112,1","8s2.11s1.3p4.1d1 C,3,2,0,111,4",0.5,1.0,1.0
Co 1,4808.1864,-3.15,4.149347988678755,3.5,6.72723376513723,2.5,1.16,0.99,1.37,8.36,-5.36,-7.55,0.055999999999999994,"_          Kurucz CoI 2008   12 wl:K08  12 gf:K08  12 K08  12 K08  12 K08  12 K08  12 K08  12 K08  12 K08   hfs:P,P Co",3p6.3d8.(3F).4p y4G*,3p6.3d7.4s.(3F).5s h4F,0.5,1.0,1.0
Co 1,4808.1897,-1.6059999999999999,4.1493767976468785,3.5,6.727260798279693,2.5,1.16,0.99,1.37,8.36,-5.36,-7.55,0.055999999999999994,"_          Kurucz CoI 2008   12 wl:K08  12 gf:K08  12 K08  12 K08  12 K08  12 K08  12 K08  12 K08  12 K08   hfs:P,P Co",3p6.3d8.(3F).4p y4G*,3p6.3d7.4s.(3F).5s h4F,0.5,1.0,1.0
TiO 1,4808.1951,-1.187,0.5200464221632167,37.0,3.097927554545608,38.0,99.0,99.0,99.0,7.406000000000001,0.0,0.0,0.001,_                             2 wl:PPN2012   2 gf:PPN2012   2 PPN2012   2 PPN2012   2 PPN2012   2 PPN2012   2 PPN2012   2 PPN2012   2 PPN2012    (47)TiO,"8s2.9s1.3p4.1d1 a,1,2,0,37,0","8s2.11s1.3p4.1d1 f,1,2,0,38,2",0.5,1.0,1.0
Co 1,4808.2013,-2.25,4.149355991114796,3.5,6.72723376513723,2.5,1.16,0.99,1.37,8.36,-5.36,-7.55,0.055999999999999994,"_          Kurucz CoI 2008   12 wl:K08  12 gf:K08  12 K08  12 K08  12 K08  12 K08  12 K08  12 K08  12 K08   hfs:P,P Co",3p6.3d8.(3F).4p y4G*,3p6.3d7.4s.(3F).5s h4F,0.5,1.0,1.0
Co 1,4808.2159,-2.928,4.149341586630734,3.5,6.727211530059224,2.5,1.16,0.99,1.37,8.36,-5.36,-7.55,0.055999999999999994,"_          Kurucz CoI 2008   12 wl:K08  12 gf:K08  12 K08  12 K08  12 K08  12 K08  12 K08  12 K08  12 K08   hfs:P,P Co",3p6.3d8.(3F).4p y4G*,3p6.3d7.4s.(3F).5s h4F,0.5,1.0,1.0
Co 1,4808.2192,-1.7469999999999999,4.149365594186828,3.5,6.72723376513723,2.5,1.16,0.99,1.37,8.36,-5.36,-7.55,0.055999999999999994,"_          Kurucz CoI 2008   12 wl:K08  12 gf:K08  12 K08  12 K08  12 K08  12 K08  12 K08  12 K08  12 K08   hfs:P,P Co",3p6.3d8.(3F).4p y4G*,3p6.3d7.4s.(3F).5s h4F,0.5,1.0,1.0
TiO 1,4808.2243,-0.9490000000000001,0.6255035370211854,9.0,3.203369047394695,8.0,99.0,99.0,99.0,7.312,0.0,0.0,0.001,_                             6 wl:PPN2012   6 gf:PPN2012   6 PPN2012   6 PPN2012   6 PPN2012   6 PPN2012   6 PPN2012   6 PPN2012   6 PPN2012    (48)TiO,"8s2.9s1.3p4.1d1 X,3,2,0,9,5","8s2.11s1.3p4.1d1 C,3,2,0,8,8",0.5,1.0,1.0
TiO 1,4808.2263,-1.527,0.15257706113809558,9.0,2.7304805478712906,10.0,99.0,99.0,99.0,7.329,0.0,0.0,0.002,_          0.0730174          8 wl:PPN2012   8 gf:PPN2012   8 PPN2012   8 PPN2012   8 PPN2012   8 PPN2012   8 PPN2012   8 PPN2012   8 PPN2012    (49)TiO,"8s2.9s1.3p4.1d1 X,3,2,0,10,1","8s2.11s1.3p4.1d1 C,3,2,0,11,3",0.5,1.0,1.0
TiO 1,4808.2274,-1.09,0.16235950110742686,24.0,2.740240335927744,25.0,99.0,99.0,99.0,7.325,0.0,0.0,0.005,_          0.0316111          8 wl:PPN2012   8 gf:PPN2012   8 PPN2012   8 PPN2012   8 PPN2012   8 PPN2012   8 PPN2012   8 PPN2012   8 PPN2012    (49)TiO,"8s2.9s1.3p4.1d1 X,3,2,0,23,1","8s2.11s1.3p4.1d1 C,3,2,0,24,3",0.5,1.0,1.0
Co 1,4808.2278,-2.1959999999999997,4.149347988678755,3.5,6.727211530059224,2.5,1.16,0.99,1.37,8.36,-5.36,-7.55,0.055999999999999994,"_          Kurucz CoI 2008   12 wl:K08  12 gf:K08  12 K08  12 K08  12 K08  12 K08  12 K08  12 K08  12 K08   hfs:P,P Co",3p6.3d8.(3F).4p y4G*,3p6.3d7.4s.(3F).5s h4F,0.5,1.0,1.0
TiO 1,4808.2298,0.077,0.16949805245622615,26.0,2.74737562649215,27.0,99.0,99.0,99.0,7.324,0.0,0.0,0.078,_          0.0281164          6 wl:PPN2012   6 gf:PPN2012   6 PPN2012   6 PPN2012   6 PPN2012   6 PPN2012   6 PPN2012   6 PPN2012   6 PPN2012    (48)TiO,"8s2.9s1.3p4.1d1 X,3,2,0,25,1","8s2.11s1.3p4.1d1 C,3,2,0,26,3",0.5,1.0,1.0
TiO 1,4808.232,-1.4780000000000002,0.15390055525082996,10.0,2.731800979574347,11.0,99.0,99.0,99.0,7.327999999999999,0.0,0.0,0.002,_          0.0729260          8 wl:PPN2012   8 gf:PPN2012   8 PPN2012   8 PPN2012   8 PPN2012   8 PPN2012   8 PPN2012   8 PPN2012   8 PPN2012    (49)TiO,"8s2.9s1.3p4.1d1 X,3,2,0,11,1","8s2.11s1.3p4.1d1 C,3,2,0,12,3",0.5,1.0,1.0
TiO 1,4808.233,0.539,1.516969097186749,141.0,4.101902983853289,140.0,99.0,99.0,99.0,7.192,0.0,0.0,0.001,_          13.1568            6 wl:PPN2012   6 gf:PPN2012   6 PPN2012   6 PPN2012   6 PPN2012   6 PPN2012   6 PPN2012   6 PPN2012   6 PPN2012    (48)TiO,"8s2.9s1.3p4.1d1 X,3,2,0,140,2","8s2.11s1.3p4.1d1 C,3,2,0,139,6",0.5,1.0,1.0
Co 1,4808.2398,-2.803,4.14933678509472,3.5,6.72719393335403,2.5,1.16,0.99,1.37,8.36,-5.36,-7.55,0.055999999999999994,"_          Kurucz CoI 2008   12 wl:K08  12 gf:K08  12 K08  12 K08  12 K08  12 K08  12 K08  12 K08  12 K08   hfs:P,P Co",3p6.3d8.(3F).4p y4G*,3p6.3d7.4s.(3F).5s h4F,0.5,1.0,1.0
Co 1,4808.2428,-1.911,4.149355991114796,3.5,6.727211530059224,2.5,1.16,0.99,1.37,8.36,-5.36,-7.55,0.055999999999999994,"_          Kurucz CoI 2008   12 wl:K08  12 gf:K08  12 K08  12 K08  12 K08  12 K08  12 K08  12 K08  12 K08   hfs:P,P Co",3p6.3d8.(3F).4p y4G*,3p6.3d7.4s.(3F).5s h4F,0.5,1.0,1.0