species,wlcent,gflog,excit,j_lo,e_upp,j_up,lande_lower,lande_upper,lande,gamrad,gamqst,gamvw,depth,reference,term_lower,term_upper,error,atom_number,ionization
TiO 1,4802.8173,-1.5759999999999998,0.13780461677476435,5.0,2.7186140203314246,6.0,99.0,99.0,99.0,7.332000000000001,0.0,0.0,0.002,_          0.0778293          3 wl:PPN2012   3 gf:PPN2012   3 PPN2012   3 PPN2012   3 PPN2012   3 PPN2012   3 PPN2012   3 PPN2012   3 PPN2012    (46)TiO,"8s2.9s1.3p4.1d1 X,3,2,0,5,1","8s2.11s1.3p4.1d1 C,3,2,0,6,3",0.5,1.0,1.0
MgH 1,4802.8268,-1.624,0.37510055118414826,5.5,2.955862989526807,4.5,99.0,99.0,99.0,7.39,0.0,0.0,0.02,_                            18 wl:KMGH  18 gf:KMGH  18 KMGH  18 KMGH  18 KMGH  18 KMGH  18 KMGH  18 KMGH  18 KMGH    (24)MgH,"4s2.5s1 X,2,0,f,6,2","4s2.2p1 A,2,1,f,5,3",0.5,1.0,1.0
MgH 1,4802.8453,-1.703,0.01421404433476527,4.5,2.594966563941626,4.5,99.0,99.0,99.0,7.39,0.0,0.0,0.059000000000000004,_                            18 wl:KMGH  18 gf:KMGH  18 KMGH  18 KMGH  18 KMGH  18 KMGH  18 KMGH  18 KMGH  18 KMGH    (24)MgH,"4s2.5s1 X,2,0,e,4,0","4s2.2p1 A,2,1,f,4,1",0.5,1.0,1.0
TiO 1,4802.8517,-0.7759999999999999,0.16724083335234424,50.0,2.7480017466893742,49.0,99.0,99.0,99.0,7.315,0.0,0.0,0.011000000000000001,_          0.0219214          2 wl:PPN2012   2 gf:PPN2012   2 PPN2012   2 PPN2012   2 PPN2012   2 PPN2012   2 PPN2012   2 PPN2012   2 PPN2012    (47)TiO,"8s2.9s1.3p4.1d1 X,3,2,0,49,0","8s2.11s1.3p4.1d1 C,3,2,0,48,2",0.5,1.0,1.0
TiO 1,4802.8574,-0.9229999999999999,0.15904746164672837,49.0,2.739806515220796,48.0,99.0,99.0,99.0,7.316,0.0,0.0,0.008,_          0.0243152          8 wl:PPN2012   8 gf:PPN2012   8 PPN2012   8 PPN2012   8 PPN2012   8 PPN2012   8 PPN2012   8 PPN2012   8 PPN2012    (49)TiO,"8s2.9s1.3p4.1d1 X,3,2,0,48,0","8s2.11s1.3p4.1d1 C,3,2,0,47,2",0.5,1.0,1.0
TiO 1,4802.8722,-0.581,0.7487886743907168,76.0,3.329820282426083,75.0,99.0,99.0,99.0,7.285,0.0,0.0,0.002,_          0.546240           3 wl:PPN2012   3 gf:PPN2012   3 PPN2012   3 PPN2012   3 PPN2012   3 PPN2012   3 PPN2012   3 PPN2012   3 PPN2012    (46)TiO,"8s2.9s1.3p4.1d1 X,3,2,0,75,3","8s2.11s1.3p4.1d1 C,3,2,0,74,6",0.5,1.0,1.0
Fe 1,4802.8744,-2.028,3.694597165423684,4.0,6.275334063021663,4.0,0.98,0.98,0.98,7.61,-6.17,-7.8,0.7190000000000001,_          Kurucz Fe I 2014   5 wl:K14   5 gf:K14   5 K14   5 K14   5 K14   5 K14   5 K14   5 K14   5 K14    Fe,3d6.4s2 b1G2,3d6.(3F2).4s.4p.(3P*) x1G*,0.5,1.0,1.0
Fe 1,4802.8797,-1.514,3.641640539063453,3.0,6.222374337056497,2.0,1.33,1.47,1.18,7.97,-6.03,-7.79,0.8109999999999999,_          Fe 1 exp.         35 wl:BWL  35 gf:BWL   5 K14   5 K14   5 K14   5 K14   5 K14   5 K14   5 K14    Fe,3d6.4s2 b3D,3d7.(2P).4p w3P*,0.5,1.0,1.0
TiO 1,4802.8858,-0.569,0.8949436640603536,90.0,3.4782343261657243,91.0,99.0,99.0,99.0,7.268,0.0,0.0,0.001,_          4.75946            2 wl:PPN2012   2 gf:PPN2012   2 PPN2012   2 PPN2012   2 PPN2012   2 PPN2012   2 PPN2012   2 PPN2012   2 PPN2012    (47)TiO,"8s2.9s1.3p4.1d1 X,3,2,0,89,3","8s2.11s1.3p4.1d1 C,3,2,0,90,6",0.5,1.0,1.0
TiO 1,4802.891,-1.166,0.14791814414501983,13.0,2.7286802973240243,14.0,99.0,99.0,99.0,7.327999999999999,0.0,0.0,0.005,_          0.0636212          3 wl:PPN2012   3 gf:PPN2012   3 PPN2012   3 PPN2012   3 PPN2012   3 PPN2012   3 PPN2012   3 PPN2012   3 PPN2012    (46)TiO,"8s2.9s1.3p4.1d1 X,3,2,0,13,1","8s2.11s1.3p4.1d1 C,3,2,0,14,3",0.5,1.0,1.0
TiO 1,4802.8919,-0.586,0.7691844840224045,75.0,3.3498747263668767,74.0,99.0,99.0,99.0,7.285,0.0,0.0,0.002,_          -0.0692628         3 wl:PPN2012   3 gf:PPN2012   3 PPN2012   3 PPN2012   3 PPN2012   3 PPN2012   3 PPN2012   3 PPN2012   3 PPN2012    (46)TiO,"8s2.9s1.3p4.1d1 X,3,2,0,76,3","8s2.11s1.3p4.1d1 C,3,2,0,75,6",0.5,1.0,1.0
TiO 1,4802.9142,-0.473,0.8919000007934988,63.0,3.4726154863205756,63.0,99.0,99.0,99.0,7.422000000000001,0.0,0.0,0.001,_                             6 wl:PPN2012   6 gf:PPN2012   6 PPN2012   6 PPN2012   6 PPN2012   6 PPN2012   6 PPN2012   6 PPN2012   6 PPN2012    (48)TiO,"8s2.9s1.3p4.1d1 X,3,2,-,64,5","8s2.3p4.4p1.1d1 B,3,1,+,64,9",0.5,1.0,1.0
TiO 1,4802.9202,-1.679,0.1371391191964237,4.0,2.7178947880019004,5.0,99.0,99.0,99.0,7.332999999999999,0.0,0.0,0.001,_          0.0807505          3 wl:PPN2012   3 gf:PPN2012   3 PPN2012   3 PPN2012   3 PPN2012   3 PPN2012   3 PPN2012   3 PPN2012   3 PPN2012    (46)TiO,"8s2.9s1.3p4.1d1 X,3,2,0,4,1","8s2.11s1.3p4.1d1 C,3,2,0,5,3",0.5,1.0,1.0
TiO 1,4802.9308,0.024,1.2124461536630387,29.0,3.793152699929478,30.0,99.0,99.0,99.0,7.361000000000001,0.0,0.0,0.001,_                             6 wl:PPN2012   6 gf:PPN2012   6 PPN2012   6 PPN2012   6 PPN2012   6 PPN2012   6 PPN2012   6 PPN2012   6 PPN2012    (48)TiO,"8s2.9s1.3p4.1d1 a,1,2,0,29,6","8s2.11s1.3p4.1d1 f,1,2,0,30,9",0.5,1.0,1.0
TiO 1,4802.9361,-0.6459999999999999,0.8295005023839682,94.0,3.4099713546910166,93.0,99.0,99.0,99.0,7.269,0.0,0.0,0.001,_          -0.433385          4 wl:PPN2012   4 gf:PPN2012   4 PPN2012   4 PPN2012   4 PPN2012   4 PPN2012   4 PPN2012   4 PPN2012   4 PPN2012    (50)TiO,"8s2.9s1.3p4.1d1 X,3,2,0,94,2","8s2.11s1.3p4.1d1 C,3,2,0,93,5",0.5,1.0,1.0
TiO 1,4802.9455,-0.596,0.32913840653525667,67.0,2.9098840698159973,68.0,99.0,99.0,99.0,7.3,0.0,0.0,0.009000000000000001,_          0.0873777          3 wl:PPN2012   3 gf:PPN2012   3 PPN2012   3 PPN2012   3 PPN2012   3 PPN2012   3 PPN2012   3 PPN2012   3 PPN2012    (46)TiO,"8s2.9s1.3p4.1d1 X,3,2,0,68,0","8s2.11s1.3p4.1d1 C,3,2,0,69,2",0.5,1.0,1.0
TiO 1,4802.9553,-0.795,0.1806314490380314,48.0,2.7613705907499853,47.0,99.0,99.0,99.0,7.316,0.0,0.0,0.01,_          0.0849964          2 wl:PPN2012   2 gf:PPN2012   2 PPN2012   2 PPN2012   2 PPN2012   2 PPN2012   2 PPN2012   2 PPN2012   2 PPN2012    (47)TiO,"8s2.9s1.3p4.1d1 X,3,2,0,49,0","8s2.11s1.3p4.1d1 C,3,2,0,48,2",0.5,1.0,1.0
TiO 1,4802.9591,-0.8109999999999999,0.3054182582104815,65.0,2.8861557261357698,66.0,99.0,99.0,99.0,7.3020000000000005,0.0,0.0,0.006,_          0.0857681          4 wl:PPN2012   4 gf:PPN2012   4 PPN2012   4 PPN2012   4 PPN2012   4 PPN2012   4 PPN2012   4 PPN2012   4 PPN2012    (50)TiO,"8s2.9s1.3p4.1d1 X,3,2,0,66,0","8s2.11s1.3p4.1d1 C,3,2,0,67,2",0.5,1.0,1.0
TiO 1,4802.9595,0.40700000000000003,1.2919221567695869,87.0,3.8726134281828974,86.0,99.0,99.0,99.0,7.353,0.0,0.0,0.002,_                             6 wl:PPN2012   6 gf:PPN2012   6 PPN2012   6 PPN2012   6 PPN2012   6 PPN2012   6 PPN2012   6 PPN2012   6 PPN2012    (48)TiO,"8s2.9s1.3p4.1d1 a,1,2,0,87,3","8s2.11s1.3p4.1d1 f,1,2,0,86,6",0.5,1.0,1.0
TiO 1,4802.9688,-0.792,0.7481354140526665,74.0,3.3287979087337445,73.0,99.0,99.0,99.0,7.2860000000000005,0.0,0.0,0.001,_          -0.0440553         4 wl:PPN2012   4 gf:PPN2012   4 PPN2012   4 PPN2012   4 PPN2012   4 PPN2012   4 PPN2012   4 PPN2012   4 PPN2012    (50)TiO,"8s2.9s1.3p4.1d1 X,3,2,0,75,3","8s2.11s1.3p4.1d1 C,3,2,0,74,6",0.5,1.0,1.0
TiO 1,4802.9757,0.349,0.3169960761481185,66.0,2.8977250635542995,67.0,99.0,99.0,99.0,7.301,0.0,0.0,0.083,_          0.0865081          6 wl:PPN2012   6 gf:PPN2012   6 PPN2012   6 PPN2012   6 PPN2012   6 PPN2012   6 PPN2012   6 PPN2012   6 PPN2012    (48)TiO,"8s2.9s1.3p4.1d1 X,3,2,0,67,0","8s2.11s1.3p4.1d1 C,3,2,0,68,2",0.5,1.0,1.0
TiO 1,4802.9817,0.23399999999999999,1.343232272987414,105.0,3.9239116419177678,105.0,99.0,99.0,99.0,7.46,0.0,0.0,0.001,_                             6 wl:PPN2012   6 gf:PPN2012   6 PPN2012   6 PPN2012   6 PPN2012   6 PPN2012   6 PPN2012   6 PPN2012   6 PPN2012    (48)TiO,"8s2.9s1.3p4.1d1 X,3,2,+,106,5","8s2.3p4.4p1.1d1 B,3,1,-,106,8",0.5,1.0,1.0
O 1,4802.982,-1.976,10.740931299860245,3.0,13.3216105448064,2.0,99.0,99.0,99.0,0.0,0.0,0.0,0.006999999999999999,"_          CNO, Na 1, Mg 1:  58 wl:NIST10  58 gf:NIST10  58 NIST10  58 NIST10  74 KP  74 KP  74 KP  74 KP  58 NIST10    O",2s2.2p3.(4S*).3p 5P,2s2.2p3.(4S*).8s 5S*,0.5,1.0,1.0
TiO 1,4802.9978,0.504,0.9276444093541614,110.0,3.5081889082745072,109.0,99.0,99.0,99.0,7.25,0.0,0.0,0.012,_          -0.234827          6 wl:PPN2012   6 gf:PPN2012   6 PPN2012   6 PPN2012   6 PPN2012   6 PPN2012   6 PPN2012   6 PPN2012   6 PPN2012    (48)TiO,"8s2.9s1.3p4.1d1 X,3,2,0,110,1","8s2.11s1.3p4.1d1 C,3,2,0,109,4",0.5,1.0,1.0
TiO 1,4802.999,-1.307,0.13043737657373142,9.0,2.7111721168466754,10.0,99.0,99.0,99.0,7.33,0.0,0.0,0.004,_          0.120511           3 wl:PPN2012   3 gf:PPN2012   3 PPN2012   3 PPN2012   3 PPN2012   3 PPN2012   3 PPN2012   3 PPN2012   3 PPN2012    (46)TiO,"8s2.9s1.3p4.1d1 X,3,2,0,8,1","8s2.11s1.3p4.1d1 C,3,2,0,9,3",0.5,1.0,1.0
TiO 1,4803.002,0.064,0.6581735838276997,51.0,3.2388419181644785,50.0,99.0,99.0,99.0,7.3,0.0,0.0,0.012,_                             6 wl:PPN2012   6 gf:PPN2012   6 PPN2012   6 PPN2012   6 PPN2012   6 PPN2012   6 PPN2012   6 PPN2012   6 PPN2012    (48)TiO,"8s2.9s1.3p4.1d1 X,3,2,0,50,4","8s2.11s1.3p4.1d1 C,3,2,0,49,7",0.5,1.0,1.0
TiO 1,4803.0069,-1.354,0.12925413338517525,8.0,2.70999029947639,9.0,99.0,99.0,99.0,7.33,0.0,0.0,0.004,_          0.131206           3 wl:PPN2012   3 gf:PPN2012   3 PPN2012   3 PPN2012   3 PPN2012   3 PPN2012   3 PPN2012   3 PPN2012   3 PPN2012    (46)TiO,"8s2.9s1.3p4.1d1 X,3,2,0,7,1","8s2.11s1.3p4.1d1 C,3,2,0,8,3",0.5,1.0,1.0
TiO 1,4803.0122,-1.135,0.14978075874361357,14.0,2.730477448266354,15.0,99.0,99.0,99.0,7.327999999999999,0.0,0.0,0.005,_          0.0628868          3 wl:PPN2012   3 gf:PPN2012   3 PPN2012   3 PPN2012   3 PPN2012   3 PPN2012   3 PPN2012   3 PPN2012   3 PPN2012    (46)TiO,"8s2.9s1.3p4.1d1 X,3,2,0,14,1","8s2.11s1.3p4.1d1 C,3,2,0,15,3",0.5,1.0,1.0
TiO 1,4803.0155,-1.265,0.13175204301160592,10.0,2.7124725870939392,11.0,99.0,99.0,99.0,7.329,0.0,0.0,0.004,_          0.110494           3 wl:PPN2012   3 gf:PPN2012   3 PPN2012   3 PPN2012   3 PPN2012   3 PPN2012   3 PPN2012   3 PPN2012   3 PPN2012    (46)TiO,"8s2.9s1.3p4.1d1 X,3,2,0,9,1","8s2.11s1.3p4.1d1 C,3,2,0,10,3",0.5,1.0,1.0
TiO 1,4803.0157,-0.9420000000000001,0.17264681712727625,47.0,2.753354144494159,46.0,99.0,99.0,99.0,7.316,0.0,0.0,0.008,_          0.0861867          8 wl:PPN2012   8 gf:PPN2012   8 PPN2012   8 PPN2012   8 PPN2012   8 PPN2012   8 PPN2012   8 PPN2012   8 PPN2012    (49)TiO,"8s2.9s1.3p4.1d1 X,3,2,0,48,0","8s2.11s1.3p4.1d1 C,3,2,0,47,2",0.5,1.0,1.0
V 1,4803.0176,-3.613,1.9495286972583623,3.5,4.530188667497195,4.5,1.22,1.05,0.75,7.88,-6.08,-7.77,0.14800000000000002,"_          Wisconsin Sc-Mn_  24 wl:LWDFSC  24 gf:LWDFSC  24 LWDFSC  24 LWDFSC  19 K09  19 K09  19 K09  19 K09  19 K09   hfs:UBDE,GYDE V",3d4.(3F2).4s b4F,3d4.(3G).4p x2G*,0.5,1.0,1.0
V 1,4803.0178,-3.8760000000000003,1.9495268508856933,3.5,4.530186755908839,4.5,1.22,1.05,0.75,7.88,-6.08,-7.77,0.14800000000000002,"_          Wisconsin Sc-Mn_  24 wl:LWDFSC  24 gf:LWDFSC  24 LWDFSC  24 LWDFSC  19 K09  19 K09  19 K09  19 K09  19 K09   hfs:UBDE,GYDE V",3d4.(3F2).4s b4F,3d4.(3G).4p x2G*,0.5,1.0,1.0
Sc 2,4803.019,-0.9390000000000001,4.849646843411926,1.0,7.430306002918092,2.0,1.5,1.17,1.0,8.83,-5.79,-7.7,0.002,_          Kurucz ScII 2009  51 wl:K09  51 gf:K09  51 K09  51 K09  51 K09  51 K09  51 K09  51 K09  51 K09    Sc+,3p6.4s.4p 3P*,3p6.3d.4d 3D,0.5,1.0,2.0
V 1,4803.0192,-3.409,1.9495323895077628,3.5,4.530191534755746,4.5,1.22,1.05,0.75,7.88,-6.08,-7.77,0.14800000000000002,"_          Wisconsin Sc-Mn_  24 wl:LWDFSC  24 gf:LWDFSC  24 LWDFSC  24 LWDFSC  19 K09  19 K09  19 K09  19 K09  19 K09   hfs:UBDE,GYDE V",3d4.(3F2).4s b4F,3d4.(3G).4p x2G*,0.5,1.0,1.0
V 1,4803.0212,-3.8089999999999997,1.9495286972583623,3.5,4.530186755908839,4.5,1.22,1.05,0.75,7.88,-6.08,-7.77,0.14800000000000002,"_          Wisconsin Sc-Mn_  24 wl:LWDFSC  24 gf:LWDFSC  24 LWDFSC  24 LWDFSC  19 K09  19 K09  19 K09  19 K09  19 K09   hfs:UBDE,GYDE V",3d4.(3F2).4s b4F,3d4.(3G).4p x2G*,0.5,1.0,1.0
V 1,4803.0224,-3.239,1.949537927137959,3.5,4.530195357684491,4.5,1.22,1.05,0.75,7.88,-6.08,-7.77,0.14800000000000002,"_          Wisconsin Sc-Mn_  24 wl:LWDFSC  24 gf:LWDFSC  24 LWDFSC  24 LWDFSC  19 K09  19 K09  19 K09  19 K09  19 K09   hfs:UBDE,GYDE V",3d4.(3F2).4s b4F,3d4.(3G).4p x2G*,0.5,1.0,1.0
V 1,4803.0245,-3.613,1.9495323895077628,3.5,4.530188667497195,4.5,1.22,1.05,0.75,7.88,-6.08,-7.77,0.14800000000000002,"_          Wisconsin Sc-Mn_  24 wl:LWDFSC  24 gf:LWDFSC  24 LWDFSC  24 LWDFSC  19 K09  19 K09  19 K09  19 K09  19 K09   hfs:UBDE,GYDE V",3d4.(3F2).4s b4F,3d4.(3G).4p x2G*,0.5,1.0,1.0
V 1,4803.0272,-3.093,1.9495453091570762,3.5,4.530200136531398,4.5,1.22,1.05,0.75,7.88,-6.08,-7.77,0.14800000000000002,"_          Wisconsin Sc-Mn_  24 wl:LWDFSC  24 gf:LWDFSC  24 LWDFSC  24 LWDFSC  19 K09  19 K09  19 K09  19 K09  19 K09   hfs:UBDE,GYDE V",3d4.(3F2).4s b4F,3d4.(3G).4p x2G*,0.5,1.0,1.0
V 1,4803.0281,-4.508,1.9495323895077628,3.5,4.530186755908839,4.5,1.22,1.05,0.75,7.88,-6.08,-7.77,0.14800000000000002,"_          Wisconsin Sc-Mn_  24 wl:LWDFSC  24 gf:LWDFSC  24 LWDFSC  24 LWDFSC  19 K09  19 K09  19 K09  19 K09  19 K09   hfs:UBDE,GYDE V",3d4.(3F2).4s b4F,3d4.(3G).4p x2G*,0.5,1.0,1.0
V 1,4803.0295,-3.508,1.949537927137959,3.5,4.530191534755746,4.5,1.22,1.05,0.75,7.88,-6.08,-7.77,0.14800000000000002,"_          Wisconsin Sc-Mn_  24 wl:LWDFSC  24 gf:LWDFSC  24 LWDFSC  24 LWDFSC  19 K09  19 K09  19 K09  19 K09  19 K09   hfs:UBDE,GYDE V",3d4.(3F2).4s b4F,3d4.(3G).4p x2G*,0.5,1.0,1.0
TiO 1,4803.0322,-0.779,0.3097255932147912,67.0,2.890410243871957,68.0,99.0,99.0,99.0,7.301,0.0,0.0,0.006999999999999999,_          0.0604789          8 wl:PPN2012   8 gf:PPN2012   8 PPN2012   8 PPN2012   8 PPN2012   8 PPN2012   8 PPN2012   8 PPN2012   8 PPN2012    (49)TiO,"8s2.9s1.3p4.1d1 X,3,2,0,67,0","8s2.11s1.3p4.1d1 C,3,2,0,68,2",0.5,1.0,1.0
TiO 1,4803.0332,-0.932,0.6734579465439653,51.0,3.254109580209345,50.0,99.0,99.0,99.0,7.3,0.0,0.0,0.001,_                             2 wl:PPN2012   2 gf:PPN2012   2 PPN2012   2 PPN2012   2 PPN2012   2 PPN2012   2 PPN2012   2 PPN2012   2 PPN2012    (47)TiO,"8s2.9s1.3p4.1d1 X,3,2,0,51,4","8s2.11s1.3p4.1d1 C,3,2,0,50,7",0.5,1.0,1.0
V 1,4803.0337,-2.964,1.9495545343252731,3.5,4.5302058710485,4.5,1.22,1.05,0.75,7.88,-6.08,-7.77,0.14800000000000002,"_          Wisconsin Sc-Mn_  24 wl:LWDFSC  24 gf:LWDFSC  24 LWDFSC  24 LWDFSC  19 K09  19 K09  19 K09  19 K09  19 K09   hfs:UBDE,GYDE V",3d4.(3F2).4s b4F,3d4.(3G).4p x2G*,0.5,1.0,1.0
V 1,4803.0348,-4.353,1.949537927137959,3.5,4.530188667497195,4.5,1.22,1.05,0.75,7.88,-6.08,-7.77,0.14800000000000002,"_          Wisconsin Sc-Mn_  24 wl:LWDFSC  24 gf:LWDFSC  24 LWDFSC  24 LWDFSC  19 K09  19 K09  19 K09  19 K09  19 K09   hfs:UBDE,GYDE V",3d4.(3F2).4s b4F,3d4.(3G).4p x2G*,0.5,1.0,1.0
TiO 1,4803.0352,0.491,1.3747278546865531,118.0,3.9553784592830934,117.0,99.0,99.0,99.0,7.227,0.0,0.0,0.002,_                             6 wl:PPN2012   6 gf:PPN2012   6 PPN2012   6 PPN2012   6 PPN2012   6 PPN2012   6 PPN2012   6 PPN2012   6 PPN2012    (48)TiO,"8s2.9s1.3p4.1d1 X,3,2,0,117,4","8s2.11s1.3p4.1d1 C,3,2,0,116,8",0.5,1.0,1.0
V 1,4803.0361,-3.4610000000000003,1.9495453091570762,3.5,4.530195357684491,4.5,1.22,1.05,0.75,7.88,-6.08,-7.77,0.14800000000000002,"_          Wisconsin Sc-Mn_  24 wl:LWDFSC  24 gf:LWDFSC  24 LWDFSC  24 LWDFSC  19 K09  19 K09  19 K09  19 K09  19 K09   hfs:UBDE,GYDE V",3d4.(3F2).4s b4F,3d4.(3G).4p x2G*,0.5,1.0,1.0
TiO 1,4803.0392,-1.4069999999999998,0.12820235064119667,7.0,2.7089273829514786,8.0,99.0,99.0,99.0,7.331,0.0,0.0,0.003,_          0.142595           3 wl:PPN2012   3 gf:PPN2012   3 PPN2012   3 PPN2012   3 PPN2012   3 PPN2012   3 PPN2012   3 PPN2012   3 PPN2012    (46)TiO,"8s2.9s1.3p4.1d1 X,3,2,0,6,1","8s2.11s1.3p4.1d1 C,3,2,0,7,3",0.5,1.0,1.0
TiO 1,4803.0409,0.159,1.325757816211777,105.0,3.9064053212033807,105.0,99.0,99.0,99.0,7.459,0.0,0.0,0.001,_                             6 wl:PPN2012   6 gf:PPN2012   6 PPN2012   6 PPN2012   6 PPN2012   6 PPN2012   6 PPN2012   6 PPN2012   6 PPN2012    (48)TiO,"8s2.9s1.3p4.1d1 X,3,2,+,105,5","8s2.3p4.4p1.1d1 B,3,1,-,105,8",0.5,1.0,1.0
V 1,4803.0418,-2.8480000000000003,1.9495656009067708,3.5,4.530212561235795,4.5,1.22,1.05,0.75,7.88,-6.08,-7.77,0.14800000000000002,"_          Wisconsin Sc-Mn_  24 wl:LWDFSC  24 gf:LWDFSC  24 LWDFSC  24 LWDFSC  19 K09  19 K09  19 K09  19 K09  19 K09   hfs:UBDE,GYDE V",3d4.(3F2).4s b4F,3d4.(3G).4p x2G*,0.5,1.0,1.0
V 1,4803.0432,-4.353,1.9495453091570762,3.5,4.530191534755746,4.5,1.22,1.05,0.75,7.88,-6.08,-7.77,0.14800000000000002,"_          Wisconsin Sc-Mn_  24 wl:LWDFSC  24 gf:LWDFSC  24 LWDFSC  24 LWDFSC  19 K09  19 K09  19 K09  19 K09  19 K09   hfs:UBDE,GYDE V",3d4.(3F2).4s b4F,3d4.(3G).4p x2G*,0.5,1.0,1.0
V 1,4803.0444,-3.467,1.9495545343252731,3.5,4.530200136531398,4.5,1.22,1.05,0.75,7.88,-6.08,-7.77,0.14800000000000002,"_          Wisconsin Sc-Mn_  24 wl:LWDFSC  24 gf:LWDFSC  24 LWDFSC  24 LWDFSC  19 K09  19 K09  19 K09  19 K09  19 K09   hfs:UBDE,GYDE V",3d4.(3F2).4s b4F,3d4.(3G).4p x2G*,0.5,1.0,1.0
Cr 1,4803.0472,-0.708,4.105515015478187,4.0,6.686159048912262,4.0,1.25,1.02,1.13,8.09,-6.12,-7.76,0.371,_          Kurucz Cr I 2016  10 wl:K16  10 gf:K16  10 K16  10 K16  10 K16  10 K16  10 K16  10 K16  10 K16    Cr,3d5.(2F1).4s b3F,4F)s2p v3G*,0.5,1.0,1.0
TiO 1,4803.0472,0.23399999999999999,1.182726323233746,47.0,3.763370331870981,46.0,99.0,99.0,99.0,7.362,0.0,0.0,0.003,_                             6 wl:PPN2012   6 gf:PPN2012   6 PPN2012   6 PPN2012   6 PPN2012   6 PPN2012   6 PPN2012   6 PPN2012   6 PPN2012    (48)TiO,"8s2.9s1.3p4.1d1 a,1,2,0,47,5","8s2.11s1.3p4.1d1 f,1,2,0,46,8",0.5,1.0,1.0
TiO 1,4803.0479,-1.825,0.1366067186540672,3.0,2.71729544839133,4.0,99.0,99.0,99.0,7.332999999999999,0.0,0.0,0.001,_          0.0839492          3 wl:PPN2012   3 gf:PPN2012   3 PPN2012   3 PPN2012   3 PPN2012   3 PPN2012   3 PPN2012   3 PPN2012   3 PPN2012    (46)TiO,"8s2.9s1.3p4.1d1 X,3,2,0,3,1","8s2.11s1.3p4.1d1 C,3,2,0,4,3",0.5,1.0,1.0
V 1,4803.0516,-2.7430000000000003,1.9495785070418068,3.5,4.530220207217269,4.5,1.22,1.05,0.75,7.88,-6.08,-7.77,0.14800000000000002,"_          Wisconsin Sc-Mn_  24 wl:LWDFSC  24 gf:LWDFSC  24 LWDFSC  24 LWDFSC  19 K09  19 K09  19 K09  19 K09  19 K09   hfs:UBDE,GYDE V",3d4.(3F2).4s b4F,3d4.(3G).4p x2G*,0.5,1.0,1.0
V 1,4803.0533,-4.45,1.9495545343252731,3.5,4.530195357684491,4.5,1.22,1.05,0.75,7.88,-6.08,-7.77,0.14800000000000002,"_          Wisconsin Sc-Mn_  24 wl:LWDFSC  24 gf:LWDFSC  24 LWDFSC  24 LWDFSC  19 K09  19 K09  19 K09  19 K09  19 K09   hfs:UBDE,GYDE V",3d4.(3F2).4s b4F,3d4.(3G).4p x2G*,0.5,1.0,1.0
V 1,4803.0543,-3.54,1.9495656009067708,3.5,4.5302058710485,4.5,1.22,1.05,0.75,7.88,-6.08,-7.77,0.14800000000000002,"_          Wisconsin Sc-Mn_  24 wl:LWDFSC  24 gf:LWDFSC  24 LWDFSC  24 LWDFSC  19 K09  19 K09  19 K09  19 K09  19 K09   hfs:UBDE,GYDE V",3d4.(3F2).4s b4F,3d4.(3G).4p x2G*,0.5,1.0,1.0
TiO 1,4803.0562,-1.227,0.13319813269879874,11.0,2.7138917102181823,12.0,99.0,99.0,99.0,7.329,0.0,0.0,0.005,_          0.101136           3 wl:PPN2012   3 gf:PPN2012   3 PPN2012   3 PPN2012   3 PPN2012   3 PPN2012   3 PPN2012   3 PPN2012   3 PPN2012    (46)TiO,"8s2.9s1.3p4.1d1 X,3,2,0,10,1","8s2.11s1.3p4.1d1 C,3,2,0,11,3",0.5,1.0,1.0
V 1,4803.065,-4.654,1.9495656009067708,3.5,4.530200136531398,4.5,1.22,1.05,0.75,7.88,-6.08,-7.77,0.14800000000000002,"_          Wisconsin Sc-Mn_  24 wl:LWDFSC  24 gf:LWDFSC  24 LWDFSC  24 LWDFSC  19 K09  19 K09  19 K09  19 K09  19 K09   hfs:UBDE,GYDE V",3d4.(3F2).4s b4F,3d4.(3G).4p x2G*,0.5,1.0,1.0
V 1,4803.0659,-3.7510000000000003,1.9495785070418068,3.5,4.530212561235795,4.5,1.22,1.05,0.75,7.88,-6.08,-7.77,0.14800000000000002,"_          Wisconsin Sc-Mn_  24 wl:LWDFSC  24 gf:LWDFSC  24 LWDFSC  24 LWDFSC  19 K09  19 K09  19 K09  19 K09  19 K09   hfs:UBDE,GYDE V",3d4.(3F2).4s b4F,3d4.(3G).4p x2G*,0.5,1.0,1.0
CH 1,4803.07,-2.9360000000000004,1.01460980189309,4.5,3.5952418088600098,5.5,99.0,99.0,99.0,6.27,0.0,0.0,0.002,_                            37 wl:JLIY  37 gf:JLIY  37 JLIY  37 JLIY  37 JLIY  37 JLIY  37 JLIY  37 JLIY  37 JLIY    (12)CH,"1s2.2s2.3s2.1p1 X,2,1,e,5,3","1s2.2s2.3s1.1p2 A,2,2,e,6,2",0.5,1.0,1.0