species,wlcent,gflog,excit,j_lo,e_upp,j_up,lande_lower,lande_upper,lande,gamrad,gamqst,gamvw,depth,reference,term_lower,term_upper,error,atom_number,ionization
Mn 1,4875.2645,-5.734,3.378298974501906,1.5,5.920716458927011,2.5,1.73,1.82,1.89,6.8,-5.61,-7.73,0.006999999999999999,"_          Kurucz MnI 2007   39 wl:K07  39 gf:K07  39 K07  39 K07  39 K07  39 K07  39 K07  39 K07  39 K07   hfs:BPPN,BPPN Mn",3d5.4s2 a4P,3d5.(4P).4s.4p.(3P*) y6D*,0.5,1.0,1.0
Mn 1,4875.2658,-5.19,3.378294073654548,1.5,5.920710900591454,2.5,1.73,1.82,1.89,6.8,-5.61,-7.73,0.006999999999999999,"_          Kurucz MnI 2007   39 wl:K07  39 gf:K07  39 K07  39 K07  39 K07  39 K07  39 K07  39 K07  39 K07   hfs:BPPN,BPPN Mn",3d5.4s2 a4P,3d5.(4P).4s.4p.(3P*) y6D*,0.5,1.0,1.0
Mn 1,4875.2695,-5.558,3.3782960339686947,1.5,5.920710900591454,2.5,1.73,1.82,1.89,6.8,-5.61,-7.73,0.006999999999999999,"_          Kurucz MnI 2007   39 wl:K07  39 gf:K07  39 K07  39 K07  39 K07  39 K07  39 K07  39 K07  39 K07   hfs:BPPN,BPPN Mn",3d5.4s2 a4P,3d5.(4P).4s.4p.(3P*) y6D*,0.5,1.0,1.0
Mn 1,4875.2711,-5.5120000000000005,3.378294073654548,1.5,5.920708121361684,2.5,1.73,1.82,1.89,6.8,-5.61,-7.73,0.006999999999999999,"_          Kurucz MnI 2007   39 wl:K07  39 gf:K07  39 K07  39 K07  39 K07  39 K07  39 K07  39 K07  39 K07   hfs:BPPN,BPPN Mn",3d5.4s2 a4P,3d5.(4P).4s.4p.(3P*) y6D*,0.5,1.0,1.0
Ti 1,4875.2747,-0.9640000000000001,2.6618772397745274,3.0,5.204289382092517,4.0,0.75,1.04,1.48,7.83,-4.88,-7.56,0.647,_          Kurucz TiI 2016   22 wl:K16  22 gf:K16  22 K16  22 K16  22 K16  22 K16  22 K16  22 K16  22 K16    Ti,3d2.(3F).4s.4p.(3P*) z3G*,3d2.4s.(4F).4d 3G,0.5,1.0,1.0
TiO 1,4875.2778,-1.074,0.3429723029221588,36.0,2.8853502008048064,35.0,99.0,99.0,99.0,7.319,0.0,0.0,0.003,_          -0.0625721         4 wl:PPN2012   4 gf:PPN2012   4 PPN2012   4 PPN2012   4 PPN2012   4 PPN2012   4 PPN2012   4 PPN2012   4 PPN2012    (50)TiO,"8s2.9s1.3p4.1d1 X,3,2,0,36,2","8s2.11s1.3p4.1d1 C,3,2,0,35,4",0.5,1.0,1.0
CN 1,4875.2842,-3.7489999999999997,0.4284075568864295,27.5,2.9708147398365194,28.5,99.0,99.0,99.0,6.17,0.0,0.0,0.001,_                            48 wl:KCN  48 gf:KCN  48 KCN  48 KCN  48 KCN  48 KCN  48 KCN  48 KCN  48 KCN    (12)C(14)N,"3s2.4s2.1p4.5s1 X,2,0,,27,1","3s2.4s2.1p3.5s2 A,2,1,e,28,8",0.5,1.0,1.0
Mn 1,4875.2902,-1.079,5.18123576041492,4.5,7.723639843760075,5.5,1.56,1.31,0.74,8.21,-4.94,-7.58,0.013999999999999999,_      A   Kurucz MnI 2007   39 wl:K07  39 gf:K07  39 K07  39 K07  39 K07  39 K07  39 K07  39 K07  39 K07    Mn,3d6.(5D).4p z6D*,3d6.(5D).4d e4G,0.5,1.0,1.0
Mn 1,4875.2904,-1.954,4.665620446680348,4.5,7.208024406041304,3.5,1.16,0.98,1.48,8.34,-6.17,-7.77,0.01,_          Kurucz MnI 2007   39 wl:K07  39 gf:K07  39 K07  39 K07  39 K07  39 K07  39 K07  39 K07  39 K07    Mn,3d6.(3G).4s b4G,3d5.(4G).4s.4p.(1P*) y4G*,0.5,1.0,1.0
TiO 1,4875.3038,-0.684,0.42299800236661034,66.0,2.965474616467284,65.0,99.0,99.0,99.0,7.3020000000000005,0.0,0.0,0.005,_          0.152697           8 wl:PPN2012   8 gf:PPN2012   8 PPN2012   8 PPN2012   8 PPN2012   8 PPN2012   8 PPN2012   8 PPN2012   8 PPN2012    (49)TiO,"8s2.9s1.3p4.1d1 X,3,2,0,66,1","8s2.11s1.3p4.1d1 C,3,2,0,65,3",0.5,1.0,1.0
TiO 1,4875.306,-0.583,0.7173697273240343,105.0,3.259718253350301,106.0,99.0,99.0,99.0,7.257999999999999,0.0,0.0,0.002,_          -0.0908384         8 wl:PPN2012   8 gf:PPN2012   8 PPN2012   8 PPN2012   8 PPN2012   8 PPN2012   8 PPN2012   8 PPN2012   8 PPN2012    (49)TiO,"8s2.9s1.3p4.1d1 X,3,2,0,104,0","8s2.11s1.3p4.1d1 C,3,2,0,105,2",0.5,1.0,1.0
Fe 1,4875.3178,-4.602,4.186364366743272,2.0,6.7287540679215185,1.0,0.68,2.46,-0.22,8.37,-4.99,-7.5,0.005,_          Kurucz Fe I 2014   5 wl:K14   5 gf:K14   5 K14   5 K14   5 K14   5 K14   5 K14   5 K14   5 K14    Fe,3d8 c3F,3d6.(3D).4s.4p.(3P*) t5P*,0.5,1.0,1.0
Mn 1,4875.333,-3.448,3.772306616887838,1.5,6.3146883830774465,2.5,1.21,1.32,1.4,6.46,-6.27,-7.82,0.006,_          Kurucz MnI 2007   39 wl:K07  39 gf:K07  39 K07  39 K07  39 K07  39 K07  39 K07  39 K07  39 K07    Mn,3d5.4s2 b4D,3d5.(4D).4s.4p.(3P*) x6F*,0.5,1.0,1.0
C2 1,4875.3345,0.436,1.473377741166622,84.0,4.015747232920681,85.0,99.0,99.0,99.0,6.77,0.0,0.0,0.003,_                             9 wl:BBSB   9 gf:BBSB   9 BBSB   9 BBSB   9 BBSB   9 BBSB   9 BBSB   9 BBSB   9 BBSB    (12)C(12)C,"2sg2.2su2.3sg1.1pu3 a,3,1,f,84,0,g","2sg2.2su1.3sg1.1pu3/2sg2.2su2.3sg1.1pg1.1pu2 d,3,1,f,85,0,g",0.5,1.0,1.0
TiO 1,4875.3365,-0.6759999999999999,0.5159107184834649,86.0,3.058350434886971,85.0,99.0,99.0,99.0,7.284,0.0,0.0,0.004,_          0.114488           8 wl:PPN2012   8 gf:PPN2012   8 PPN2012   8 PPN2012   8 PPN2012   8 PPN2012   8 PPN2012   8 PPN2012   8 PPN2012    (49)TiO,"8s2.9s1.3p4.1d1 X,3,2,0,87,0","8s2.11s1.3p4.1d1 C,3,2,0,86,2",0.5,1.0,1.0
TiO 1,4875.3418,-0.691,0.7836736368929362,40.0,3.3260509148545965,41.0,99.0,99.0,99.0,7.391,0.0,0.0,0.001,_                             3 wl:PPN2012   3 gf:PPN2012   3 PPN2012   3 PPN2012   3 PPN2012   3 PPN2012   3 PPN2012   3 PPN2012   3 PPN2012    (46)TiO,"8s2.9s1.3p4.1d1 a,1,2,0,40,2","8s2.11s1.3p4.1d1 f,1,2,0,41,4",0.5,1.0,1.0
C2 1,4875.3519,0.441,1.4732919441019725,85.0,4.015661435856032,86.0,99.0,99.0,99.0,6.77,0.0,0.0,0.003,_                             9 wl:BBSB   9 gf:BBSB   9 BBSB   9 BBSB   9 BBSB   9 BBSB   9 BBSB   9 BBSB   9 BBSB    (12)C(12)C,"2sg2.2su2.3sg1.1pu3 a,3,1,e,84,0,g","2sg2.2su1.3sg1.1pu3/2sg2.2su2.3sg1.1pg1.1pu2 d,3,1,e,85,0,g",0.5,1.0,1.0
TiO 1,4875.3531,0.09,0.3498813471230211,37.0,2.8922235127599576,36.0,99.0,99.0,99.0,7.318,0.0,0.0,0.040999999999999995,_          -0.0559575         6 wl:PPN2012   6 gf:PPN2012   6 PPN2012   6 PPN2012   6 PPN2012   6 PPN2012   6 PPN2012   6 PPN2012   6 PPN2012    (48)TiO,"8s2.9s1.3p4.1d1 X,3,2,0,37,2","8s2.11s1.3p4.1d1 C,3,2,0,36,4",0.5,1.0,1.0
V 1,4875.3772,-6.222,1.3504978762746815,3.5,3.892856575700288,2.5,0.88,0.53,1.32,8.53,-5.95,-7.7,0.037000000000000005,"_          Kurucz V I 2009   19 wl:K09  19 gf:K09  19 K09  19 K09  19 K09  19 K09  19 K09  19 K09  19 K09   hfs:UBDE,LWDF V",3d3.4s2 a2G,3d3.(4F).4s.4p.(1P*) x4G*,0.5,1.0,1.0
TiO 1,4875.3799,0.159,1.1595297353780478,93.0,3.7018870642823347,93.0,99.0,99.0,99.0,7.417999999999999,0.0,0.0,0.002,_                             6 wl:PPN2012   6 gf:PPN2012   6 PPN2012   6 PPN2012   6 PPN2012   6 PPN2012   6 PPN2012   6 PPN2012   6 PPN2012    (48)TiO,"8s2.9s1.3p4.1d1 X,3,2,-,92,5","8s2.3p4.4p1.1d1 B,3,1,+,92,8",0.5,1.0,1.0
TiO 1,4875.3855,-0.742,0.7333028373535623,52.0,3.2756572898244682,51.0,99.0,99.0,99.0,7.394,0.0,0.0,0.001,_                             2 wl:PPN2012   2 gf:PPN2012   2 PPN2012   2 PPN2012   2 PPN2012   2 PPN2012   2 PPN2012   2 PPN2012   2 PPN2012    (47)TiO,"8s2.9s1.3p4.1d1 a,1,2,0,52,1","8s2.11s1.3p4.1d1 f,1,2,0,51,3",0.5,1.0,1.0
TiO 1,4875.3867,-0.183,0.9001168799029552,64.0,3.4424707124528737,63.0,99.0,99.0,99.0,7.287000000000001,0.0,0.0,0.003,_                             6 wl:PPN2012   6 gf:PPN2012   6 PPN2012   6 PPN2012   6 PPN2012   6 PPN2012   6 PPN2012   6 PPN2012   6 PPN2012    (48)TiO,"8s2.9s1.3p4.1d1 X,3,2,0,65,5","8s2.11s1.3p4.1d1 C,3,2,0,64,8",0.5,1.0,1.0
Ce 2,4875.3872,-2.29,1.3199444451607976,5.5,3.862297942953383,5.5,0.95,1.21,1.08,0.0,0.0,0.0,0.005,C-0.013    Ce 2: DREAM data  15 wl:PQWB  15 gf:PQWB  15 PQWB  15 PQWB  15 PQWB  15 PQWB  15 PQWB  15 PQWB  15 PQWB    Ce+,4f2.(3H).5d 2I,"4f2.(3H<6>).6p.<3/2> (6,3/2)*",0.013,1.0,2.0
TiO 1,4875.3873,-0.397,0.602153704697414,85.0,3.1445162285395756,86.0,99.0,99.0,99.0,7.282,0.0,0.0,0.005,_          0.0173690          3 wl:PPN2012   3 gf:PPN2012   3 PPN2012   3 PPN2012   3 PPN2012   3 PPN2012   3 PPN2012   3 PPN2012   3 PPN2012    (46)TiO,"8s2.9s1.3p4.1d1 X,3,2,0,84,1","8s2.11s1.3p4.1d1 C,3,2,0,85,3",0.5,1.0,1.0
V 1,4875.3901,-5.812,1.3504896463276377,3.5,3.8928416127914,2.5,0.88,0.53,1.32,8.53,-5.95,-7.7,0.037000000000000005,"_          Kurucz V I 2009   19 wl:K09  19 gf:K09  19 K09  19 K09  19 K09  19 K09  19 K09  19 K09  19 K09   hfs:UBDE,LWDF V",3d3.4s2 a2G,3d3.(4F).4s.4p.(1P*) x4G*,0.5,1.0,1.0
TiO 1,4875.3956,-0.85,0.3571971462805237,38.0,2.899520602702062,37.0,99.0,99.0,99.0,7.318,0.0,0.0,0.005,_          -0.0493158         3 wl:PPN2012   3 gf:PPN2012   3 PPN2012   3 PPN2012   3 PPN2012   3 PPN2012   3 PPN2012   3 PPN2012   3 PPN2012    (46)TiO,"8s2.9s1.3p4.1d1 X,3,2,0,38,2","8s2.11s1.3p4.1d1 C,3,2,0,37,4",0.5,1.0,1.0
V 1,4875.3962,-5.1080000000000005,1.350507752235931,3.5,3.892856575700288,2.5,0.88,0.53,1.32,8.53,-5.95,-7.7,0.037000000000000005,"_          Kurucz V I 2009   19 wl:K09  19 gf:K09  19 K09  19 K09  19 K09  19 K09  19 K09  19 K09  19 K09   hfs:UBDE,LWDF V",3d3.4s2 a2G,3d3.(4F).4s.4p.(1P*) x4G*,0.5,1.0,1.0
V 1,4875.4014,-5.59,1.3504830622708153,3.5,3.892829143824645,2.5,0.88,0.53,1.32,8.53,-5.95,-7.7,0.037000000000000005,"_          Kurucz V I 2009   19 wl:K09  19 gf:K09  19 K09  19 K09  19 K09  19 K09  19 K09  19 K09  19 K09   hfs:UBDE,LWDF V",3d3.4s2 a2G,3d3.(4F).4s.4p.(1P*) x4G*,0.5,1.0,1.0
CN 1,4875.4017,-3.7,0.42840817680741683,27.5,2.9707541115639566,28.5,99.0,99.0,99.0,7.18,0.0,0.0,0.001,_                            28 wl:BRW  28 gf:BRW  28 BRW  28 BRW  28 BRW  28 BRW  28 BRW  28 BRW  28 BRW    (12)C(14)N,"3s2.4s2.1p4.5s1 X,2,0,e,27,1","3s2.4s2.1p3.5s2 A,2,1,e,28,8",0.5,1.0,1.0
V 1,4875.4059,-4.912,1.3504978762746815,3.5,3.8928416127914,2.5,0.88,0.53,1.32,8.53,-5.95,-7.7,0.037000000000000005,"_          Kurucz V I 2009   19 wl:K09  19 gf:K09  19 K09  19 K09  19 K09  19 K09  19 K09  19 K09  19 K09   hfs:UBDE,LWDF V",3d3.4s2 a2G,3d3.(4F).4s.4p.(1P*) x4G*,0.5,1.0,1.0
V 1,4875.4111,-5.465,1.3504781243521824,3.5,3.892819168552053,2.5,0.88,0.53,1.32,8.53,-5.95,-7.7,0.037000000000000005,"_          Kurucz V I 2009   19 wl:K09  19 gf:K09  19 K09  19 K09  19 K09  19 K09  19 K09  19 K09  19 K09   hfs:UBDE,LWDF V",3d3.4s2 a2G,3d3.(4F).4s.4p.(1P*) x4G*,0.5,1.0,1.0
V 1,4875.414,-4.8580000000000005,1.3504896463276377,3.5,3.892829143824645,2.5,0.88,0.53,1.32,8.53,-5.95,-7.7,0.037000000000000005,"_          Kurucz V I 2009   19 wl:K09  19 gf:K09  19 K09  19 K09  19 K09  19 K09  19 K09  19 K09  19 K09   hfs:UBDE,LWDF V",3d3.4s2 a2G,3d3.(4F).4s.4p.(1P*) x4G*,0.5,1.0,1.0
V 1,4875.4183,-4.268,1.3505192742113863,3.5,3.892856575700288,2.5,0.88,0.53,1.32,8.53,-5.95,-7.7,0.037000000000000005,"_          Kurucz V I 2009   19 wl:K09  19 gf:K09  19 K09  19 K09  19 K09  19 K09  19 K09  19 K09  19 K09   hfs:UBDE,LWDF V",3d3.4s2 a2G,3d3.(4F).4s.4p.(1P*) x4G*,0.5,1.0,1.0
TiO 1,4875.4183,0.445,0.43060337901572415,65.0,2.972982975481877,64.0,99.0,99.0,99.0,7.3020000000000005,0.0,0.0,0.068,_          0.0810789          6 wl:PPN2012   6 gf:PPN2012   6 PPN2012   6 PPN2012   6 PPN2012   6 PPN2012   6 PPN2012   6 PPN2012   6 PPN2012    (48)TiO,"8s2.9s1.3p4.1d1 X,3,2,0,66,1","8s2.11s1.3p4.1d1 C,3,2,0,65,3",0.5,1.0,1.0
CH 1,4875.419,-2.924,0.4581905448659136,7.5,3.0005275527602353,7.5,99.0,99.0,99.0,6.27,0.0,0.0,0.01,_                            37 wl:JLIY  37 gf:JLIY  37 JLIY  37 JLIY  37 JLIY  37 JLIY  37 JLIY  37 JLIY  37 JLIY    (12)CH,"1s2.2s2.3s2.1p1 X,2,1,f,8,1","1s2.2s2.3s1.1p2 A,2,2,e,8,0",0.5,1.0,1.0
V 1,4875.4191,-5.414,1.3504748323237714,3.5,3.892811687097609,2.5,0.88,0.53,1.32,8.53,-5.95,-7.7,0.037000000000000005,"_          Kurucz V I 2009   19 wl:K09  19 gf:K09  19 K09  19 K09  19 K09  19 K09  19 K09  19 K09  19 K09   hfs:UBDE,LWDF V",3d3.4s2 a2G,3d3.(4F).4s.4p.(1P*) x4G*,0.5,1.0,1.0
V 1,4875.4205,-4.88,1.3504830622708153,3.5,3.892819168552053,2.5,0.88,0.53,1.32,8.53,-5.95,-7.7,0.037000000000000005,"_          Kurucz V I 2009   19 wl:K09  19 gf:K09  19 K09  19 K09  19 K09  19 K09  19 K09  19 K09  19 K09   hfs:UBDE,LWDF V",3d3.4s2 a2G,3d3.(4F).4s.4p.(1P*) x4G*,0.5,1.0,1.0
V 1,4875.4249,-4.409,1.350507752235931,3.5,3.8928416127914,2.5,0.88,0.53,1.32,8.53,-5.95,-7.7,0.037000000000000005,"_          Kurucz V I 2009   19 wl:K09  19 gf:K09  19 K09  19 K09  19 K09  19 K09  19 K09  19 K09  19 K09   hfs:UBDE,LWDF V",3d3.4s2 a2G,3d3.(4F).4s.4p.(1P*) x4G*,0.5,1.0,1.0
V 1,4875.4254,-4.971,1.3504781243521824,3.5,3.892811687097609,2.5,0.88,0.53,1.32,8.53,-5.95,-7.7,0.037000000000000005,"_          Kurucz V I 2009   19 wl:K09  19 gf:K09  19 K09  19 K09  19 K09  19 K09  19 K09  19 K09  19 K09   hfs:UBDE,LWDF V",3d3.4s2 a2G,3d3.(4F).4s.4p.(1P*) x4G*,0.5,1.0,1.0
V 1,4875.4255,-5.444,1.3504731863095658,3.5,3.892806699461314,2.5,0.88,0.53,1.32,8.53,-5.95,-7.7,0.037000000000000005,"_          Kurucz V I 2009   19 wl:K09  19 gf:K09  19 K09  19 K09  19 K09  19 K09  19 K09  19 K09  19 K09   hfs:UBDE,LWDF V",3d3.4s2 a2G,3d3.(4F).4s.4p.(1P*) x4G*,0.5,1.0,1.0
TiO 1,4875.4273,-1.111,0.5578718186894771,69.0,3.100204400347949,69.0,99.0,99.0,99.0,7.256,0.0,0.0,0.001,_                             6 wl:PPN2012   6 gf:PPN2012   6 PPN2012   6 PPN2012   6 PPN2012   6 PPN2012   6 PPN2012   6 PPN2012   6 PPN2012    (48)TiO,"8s2.9s1.3p4.1d1 X,3,2,+,68,2","8s2.3p4.4p1.1d1 B,3,1,-,68,6",0.5,1.0,1.0
V 1,4875.4287,-5.159,1.3504748323237714,3.5,3.892806699461314,2.5,0.88,0.53,1.32,8.53,-5.95,-7.7,0.037000000000000005,"_          Kurucz V I 2009   19 wl:K09  19 gf:K09  19 K09  19 K09  19 K09  19 K09  19 K09  19 K09  19 K09   hfs:UBDE,LWDF V",3d3.4s2 a2G,3d3.(4F).4s.4p.(1P*) x4G*,0.5,1.0,1.0
TiO 1,4875.4289,-0.9209999999999999,0.448321129982057,52.0,2.9906706850771627,53.0,99.0,99.0,99.0,7.308,0.0,0.0,0.003,_          0.0340461          4 wl:PPN2012   4 gf:PPN2012   4 PPN2012   4 PPN2012   4 PPN2012   4 PPN2012   4 PPN2012   4 PPN2012   4 PPN2012    (50)TiO,"8s2.9s1.3p4.1d1 X,3,2,0,53,2","8s2.11s1.3p4.1d1 C,3,2,0,54,4",0.5,1.0,1.0
V 1,4875.4298,-4.573,1.3504978762746815,3.5,3.892829143824645,2.5,0.88,0.53,1.32,8.53,-5.95,-7.7,0.037000000000000005,"_          Kurucz V I 2009   19 wl:K09  19 gf:K09  19 K09  19 K09  19 K09  19 K09  19 K09  19 K09  19 K09   hfs:UBDE,LWDF V",3d3.4s2 a2G,3d3.(4F).4s.4p.(1P*) x4G*,0.5,1.0,1.0
Mn 1,4875.4314,-0.8440000000000001,5.18123576041492,4.5,7.723566197146776,3.5,1.56,1.48,1.69,8.24,-5.31,-7.58,0.023,_      A   Kurucz MnI 2007   39 wl:K07  39 gf:K07  39 K07  39 K07  39 K07  39 K07  39 K07  39 K07  39 K07    Mn,3d6.(5D).4p z6D*,3d6.(5D).4d e6F,0.5,1.0,1.0
TiO 1,4875.4322,-0.179,0.8941408043896357,65.0,3.4364708691688994,64.0,99.0,99.0,99.0,7.2860000000000005,0.0,0.0,0.003,_                             6 wl:PPN2012   6 gf:PPN2012   6 PPN2012   6 PPN2012   6 PPN2012   6 PPN2012   6 PPN2012   6 PPN2012   6 PPN2012    (48)TiO,"8s2.9s1.3p4.1d1 X,3,2,0,65,5","8s2.11s1.3p4.1d1 C,3,2,0,64,8",0.5,1.0,1.0
V 1,4875.4332,-4.771,1.3504896463276377,3.5,3.892819168552053,2.5,0.88,0.53,1.32,8.53,-5.95,-7.7,0.037000000000000005,"_          Kurucz V I 2009   19 wl:K09  19 gf:K09  19 K09  19 K09  19 K09  19 K09  19 K09  19 K09  19 K09   hfs:UBDE,LWDF V",3d3.4s2 a2G,3d3.(4F).4s.4p.(1P*) x4G*,0.5,1.0,1.0
V 1,4875.4349,-5.026,1.3504830622708153,3.5,3.892811687097609,2.5,0.88,0.53,1.32,8.53,-5.95,-7.7,0.037000000000000005,"_          Kurucz V I 2009   19 wl:K09  19 gf:K09  19 K09  19 K09  19 K09  19 K09  19 K09  19 K09  19 K09   hfs:UBDE,LWDF V",3d3.4s2 a2G,3d3.(4F).4s.4p.(1P*) x4G*,0.5,1.0,1.0
V 1,4875.435,-5.414,1.3504781243521824,3.5,3.892806699461314,2.5,0.88,0.53,1.32,8.53,-5.95,-7.7,0.037000000000000005,"_          Kurucz V I 2009   19 wl:K09  19 gf:K09  19 K09  19 K09  19 K09  19 K09  19 K09  19 K09  19 K09   hfs:UBDE,LWDF V",3d3.4s2 a2G,3d3.(4F).4s.4p.(1P*) x4G*,0.5,1.0,1.0
C2 1,4875.4354,0.43,1.4733862960762474,83.0,4.0157154929661285,84.0,99.0,99.0,99.0,6.77,0.0,0.0,0.003,_                             9 wl:BBSB   9 gf:BBSB   9 BBSB   9 BBSB   9 BBSB   9 BBSB   9 BBSB   9 BBSB   9 BBSB    (12)C(12)C,"2sg2.2su2.3sg1.1pu3 a,3,1,e,84,0,g","2sg2.2su1.3sg1.1pu3/2sg2.2su2.3sg1.1pg1.1pu2 d,3,1,e,85,0,g",0.5,1.0,1.0
TiO 1,4875.4386,-0.705,0.46881715604055973,54.0,3.0111620493298408,55.0,99.0,99.0,99.0,7.307,0.0,0.0,0.004,_          0.0349432          3 wl:PPN2012   3 gf:PPN2012   3 PPN2012   3 PPN2012   3 PPN2012   3 PPN2012   3 PPN2012   3 PPN2012   3 PPN2012    (46)TiO,"8s2.9s1.3p4.1d1 X,3,2,0,55,2","8s2.11s1.3p4.1d1 C,3,2,0,56,4",0.5,1.0,1.0
TiO 1,4875.441,0.073,1.224028608609661,106.0,3.766354135567297,106.0,99.0,99.0,99.0,7.3629999999999995,0.0,0.0,0.001,_                             6 wl:PPN2012   6 gf:PPN2012   6 PPN2012   6 PPN2012   6 PPN2012   6 PPN2012   6 PPN2012   6 PPN2012   6 PPN2012    (48)TiO,"8s2.9s1.3p4.1d1 X,3,2,+,106,4","8s2.3p4.4p1.1d1 B,3,1,-,106,7",0.5,1.0,1.0
TiO 1,4875.4415,0.344,1.345792422680975,142.0,3.8881787762858897,141.0,99.0,99.0,99.0,7.195,0.0,0.0,0.002,_          0.117136           6 wl:PPN2012   6 gf:PPN2012   6 PPN2012   6 PPN2012   6 PPN2012   6 PPN2012   6 PPN2012   6 PPN2012   6 PPN2012    (48)TiO,"8s2.9s1.3p4.1d1 X,3,2,0,143,0","8s2.11s1.3p4.1d1 C,3,2,0,142,3",0.5,1.0,1.0
V 1,4875.442,-3.3739999999999997,0.04009967597969833,3.5,2.582424614136381,2.5,1.24,1.35,1.1,7.16,-5.86,-7.736000000000001,0.99,"_          Wisconsin Sc-Mn_  24 wl:LWDFSC  24 gf:LWDFSC  24 LWDFSC  24 LWDFSC  19 K09  19 K09  19 K09  25 BPM  44 MFW   hfs:UBDE,PBAG V",- a4F,- z4D*,0.5,1.0,1.0
TiO 1,4875.4494,0.239,0.4583021430420564,53.0,3.0006412462693155,54.0,99.0,99.0,99.0,7.308,0.0,0.0,0.039,_          0.0345761          6 wl:PPN2012   6 gf:PPN2012   6 PPN2012   6 PPN2012   6 PPN2012   6 PPN2012   6 PPN2012   6 PPN2012   6 PPN2012    (48)TiO,"8s2.9s1.3p4.1d1 X,3,2,0,54,2","8s2.11s1.3p4.1d1 C,3,2,0,55,4",0.5,1.0,1.0
TiO 1,4875.453,0.22699999999999998,0.7658663693360299,37.0,3.3081855359043355,38.0,99.0,99.0,99.0,7.392,0.0,0.0,0.012,_                             6 wl:PPN2012   6 gf:PPN2012   6 PPN2012   6 PPN2012   6 PPN2012   6 PPN2012   6 PPN2012   6 PPN2012   6 PPN2012    (48)TiO,"8s2.9s1.3p4.1d1 a,1,2,0,37,2","8s2.11s1.3p4.1d1 f,1,2,0,38,4",0.5,1.0,1.0
V 1,4875.4539,-2.26,0.04010587556152443,3.5,2.582424614136381,2.5,1.24,1.35,1.1,7.16,-5.86,-7.736000000000001,0.99,"_          Wisconsin Sc-Mn_  24 wl:LWDFSC  24 gf:LWDFSC  24 LWDFSC  24 LWDFSC  19 K09  19 K09  19 K09  25 BPM  44 MFW   hfs:UBDE,PBAG V",- a4F,- z4D*,0.5,1.0,1.0
Pd 1,4875.457,-0.12,4.224008944715942,2.0,6.7663259911544715,1.0,1.48,99.0,99.0,0.0,0.0,0.0,0.003,_          Cu 1 - Ba 2 Bell  17 wl:CB  17 gf:CB  17 CB  17 CB  17 CB  17 CB  17 CB  17 CB  17 CB    Pd,4d9.(2D<5/2>).5p 3P*,4d9.(2D<5/2>).5d 3S,0.5,1.0,1.0
TiO 1,4875.4577,-0.539,0.4210106968606209,67.0,2.9633848628189248,66.0,99.0,99.0,99.0,7.301,0.0,0.0,0.006999999999999999,_          0.110150           2 wl:PPN2012   2 gf:PPN2012   2 PPN2012   2 PPN2012   2 PPN2012   2 PPN2012   2 PPN2012   2 PPN2012   2 PPN2012    (47)TiO,"8s2.9s1.3p4.1d1 X,3,2,0,66,1","8s2.11s1.3p4.1d1 C,3,2,0,65,3",0.5,1.0,1.0
V 1,4875.4612,-2.964,0.040094513897636665,3.5,2.5824094511169986,2.5,1.24,1.35,1.1,7.16,-5.86,-7.736000000000001,0.99,"_          Wisconsin Sc-Mn_  24 wl:LWDFSC  24 gf:LWDFSC  24 LWDFSC  24 LWDFSC  19 K09  19 K09  19 K09  25 BPM  44 MFW   hfs:UBDE,PBAG V",- a4F,- z4D*,0.5,1.0,1.0
TiO 1,4875.4615,0.5489999999999999,0.6013176544570334,84.0,3.143702644235776,85.0,99.0,99.0,99.0,7.2829999999999995,0.0,0.0,0.046,_          0.134533           6 wl:PPN2012   6 gf:PPN2012   6 PPN2012   6 PPN2012   6 PPN2012   6 PPN2012   6 PPN2012   6 PPN2012   6 PPN2012    (48)TiO,"8s2.9s1.3p4.1d1 X,3,2,0,84,1","8s2.11s1.3p4.1d1 C,3,2,0,85,3",0.5,1.0,1.0
TiO 1,4875.466,-0.45,0.7466461778647541,104.0,3.289086142236655,105.0,99.0,99.0,99.0,7.2589999999999995,0.0,0.0,0.003,_          0.244504           2 wl:PPN2012   2 gf:PPN2012   2 PPN2012   2 PPN2012   2 PPN2012   2 PPN2012   2 PPN2012   2 PPN2012   2 PPN2012    (47)TiO,"8s2.9s1.3p4.1d1 X,3,2,0,105,0","8s2.11s1.3p4.1d1 C,3,2,0,106,2",0.5,1.0,1.0
V 1,4875.4678,-1.42,0.040113115246783106,3.5,2.582424614136381,2.5,1.24,1.35,1.1,7.16,-5.86,-7.736000000000001,0.99,"_          Wisconsin Sc-Mn_  24 wl:LWDFSC  24 gf:LWDFSC  24 LWDFSC  24 LWDFSC  19 K09  19 K09  19 K09  25 BPM  44 MFW   hfs:UBDE,PBAG V",- a4F,- z4D*,0.5,1.0,1.0