species,wlcent,gflog,excit,j_lo,e_upp,j_up,lande_lower,lande_upper,lande,gamrad,gamqst,gamvw,depth,reference,term_lower,term_upper,error,atom_number,ionization
TiO 1,4732.5748,-0.505,0.6898474176075414,79.0,3.3088453798032718,80.0,99.0,99.0,99.0,7.2829999999999995,0.0,0.0,0.003,_          -0.133325          3 wl:PPN2012   3 gf:PPN2012   3 PPN2012   3 PPN2012   3 PPN2012   3 PPN2012   3 PPN2012   3 PPN2012   3 PPN2012    (46)TiO,"8s2.9s1.3p4.1d1 X,3,2,0,80,2","8s2.11s1.3p4.1d1 C,3,2,0,81,5",0.5,1.0,1.0
TiO 1,4732.5788,0.479,0.814137608077025,103.0,3.430759041175648,104.0,99.0,99.0,99.0,7.257000000000001,0.0,0.0,0.017,_          -4.42766           6 wl:PPN2012   6 gf:PPN2012   6 PPN2012   6 PPN2012   6 PPN2012   6 PPN2012   6 PPN2012   6 PPN2012   6 PPN2012    (48)TiO,"8s2.9s1.3p4.1d1 X,3,2,0,102,1","8s2.11s1.3p4.1d1 C,3,2,0,103,4",0.5,1.0,1.0
TiO 1,4732.5869,-0.765,0.5912076730348257,85.0,3.2094762609936787,84.0,99.0,99.0,99.0,7.282,0.0,0.0,0.002,_          -1.43963           4 wl:PPN2012   4 gf:PPN2012   4 PPN2012   4 PPN2012   4 PPN2012   4 PPN2012   4 PPN2012   4 PPN2012   4 PPN2012    (50)TiO,"8s2.9s1.3p4.1d1 X,3,2,0,84,1","8s2.11s1.3p4.1d1 C,3,2,0,83,4",0.5,1.0,1.0
TiO 1,4732.5982,0.479,0.7275343609804868,86.0,3.3401864771923626,87.0,99.0,99.0,99.0,7.276,0.0,0.0,0.024,_          -11.6052           6 wl:PPN2012   6 gf:PPN2012   6 PPN2012   6 PPN2012   6 PPN2012   6 PPN2012   6 PPN2012   6 PPN2012   6 PPN2012    (48)TiO,"8s2.9s1.3p4.1d1 X,3,2,0,85,2","8s2.11s1.3p4.1d1 C,3,2,0,86,5",0.5,1.0,1.0
TiO 1,4787.5041,0.322,1.1979335305839258,136.0,3.7864362279841264,137.0,99.0,99.0,99.0,7.204,0.0,0.0,0.003,_          -0.961030          6 wl:PPN2012   6 gf:PPN2012   6 PPN2012   6 PPN2012   6 PPN2012   6 PPN2012   6 PPN2012   6 PPN2012   6 PPN2012    (48)TiO,"8s2.9s1.3p4.1d1 X,3,2,0,135,0","8s2.11s1.3p4.1d1 C,3,2,0,136,3",0.5,1.0,1.0
TiO 1,4787.5273,0.563,1.5184893914161277,132.0,4.092810354763423,131.0,99.0,99.0,99.0,7.205,0.0,0.0,0.002,_          -27.3172           6 wl:PPN2012   6 gf:PPN2012   6 PPN2012   6 PPN2012   6 PPN2012   6 PPN2012   6 PPN2012   6 PPN2012   6 PPN2012    (48)TiO,"8s2.9s1.3p4.1d1 X,3,2,0,133,3","8s2.11s1.3p4.1d1 C,3,2,0,132,7",0.5,1.0,1.0
TiO 1,4787.5354,-0.897,0.10963903984653732,38.0,2.698692859402912,37.0,99.0,99.0,99.0,7.322,0.0,0.0,0.011000000000000001,_          0.0897365          2 wl:PPN2012   2 gf:PPN2012   2 PPN2012   2 PPN2012   2 PPN2012   2 PPN2012   2 PPN2012   2 PPN2012   2 PPN2012    (47)TiO,"8s2.9s1.3p4.1d1 X,3,2,0,38,0","8s2.11s1.3p4.1d1 C,3,2,0,37,2",0.5,1.0,1.0
TiO 1,4787.5464,0.177,1.3722590813465279,78.0,3.9612584098481145,78.0,99.0,99.0,99.0,7.597,0.0,0.0,0.001,_                             6 wl:PPN2012   6 gf:PPN2012   6 PPN2012   6 PPN2012   6 PPN2012   6 PPN2012   6 PPN2012   6 PPN2012   6 PPN2012    (48)TiO,"8s2.9s1.3p4.1d1 X,3,2,-,79,8","8s2.3p4.4p1.1d1 B,3,1,+,79,11",0.5,1.0,1.0
TiO 1,4787.5471,-0.9079999999999999,0.20479739494323013,52.0,2.7938430439409916,53.0,99.0,99.0,99.0,7.312,0.0,0.0,0.006999999999999999,_          0.0862437          4 wl:PPN2012   4 gf:PPN2012   4 PPN2012   4 PPN2012   4 PPN2012   4 PPN2012   4 PPN2012   4 PPN2012   4 PPN2012    (50)TiO,"8s2.9s1.3p4.1d1 X,3,2,0,53,0","8s2.11s1.3p4.1d1 C,3,2,0,54,2",0.5,1.0,1.0
TiO 1,4787.5516,0.40399999999999997,0.8140528648780541,83.0,3.4049430515784183,84.0,99.0,99.0,99.0,7.276,0.0,0.0,0.015,_          3.49917            6 wl:PPN2012   6 gf:PPN2012   6 PPN2012   6 PPN2012   6 PPN2012   6 PPN2012   6 PPN2012   6 PPN2012   6 PPN2012    (48)TiO,"8s2.9s1.3p4.1d1 X,3,2,0,82,3","8s2.11s1.3p4.1d1 C,3,2,0,83,6",0.5,1.0,1.0
TiO 1,4787.5567,-0.8640000000000001,0.19987771438603522,55.0,2.78886978981207,56.0,99.0,99.0,99.0,7.31,0.0,0.0,0.008,_          -0.00315166        8 wl:PPN2012   8 gf:PPN2012   8 PPN2012   8 PPN2012   8 PPN2012   8 PPN2012   8 PPN2012   8 PPN2012   8 PPN2012    (49)TiO,"8s2.9s1.3p4.1d1 X,3,2,0,54,0","8s2.11s1.3p4.1d1 C,3,2,0,55,2",0.5,1.0,1.0
TiO 1,4787.5617,-0.578,0.8769185686669121,87.0,3.462919426141622,88.0,99.0,99.0,99.0,7.271,0.0,0.0,0.001,_          -5.53597           2 wl:PPN2012   2 gf:PPN2012   2 PPN2012   2 PPN2012   2 PPN2012   2 PPN2012   2 PPN2012   2 PPN2012   2 PPN2012    (47)TiO,"8s2.9s1.3p4.1d1 X,3,2,0,87,3","8s2.11s1.3p4.1d1 C,3,2,0,88,6",0.5,1.0,1.0
TiO 1,4787.5645,-0.6609999999999999,0.8600184810844749,107.0,3.446465731263756,106.0,99.0,99.0,99.0,7.254,0.0,0.0,0.001,_          -4.70597           4 wl:PPN2012   4 gf:PPN2012   4 PPN2012   4 PPN2012   4 PPN2012   4 PPN2012   4 PPN2012   4 PPN2012   4 PPN2012    (50)TiO,"8s2.9s1.3p4.1d1 X,3,2,0,106,1","8s2.11s1.3p4.1d1 C,3,2,0,105,4",0.5,1.0,1.0
TiO 1,4787.5698,-0.6709999999999999,0.759724911301705,88.0,3.3485556584899916,87.0,99.0,99.0,99.0,7.276,0.0,0.0,0.002,_          -0.288554          4 wl:PPN2012   4 gf:PPN2012   4 PPN2012   4 PPN2012   4 PPN2012   4 PPN2012   4 PPN2012   4 PPN2012   4 PPN2012    (50)TiO,"8s2.9s1.3p4.1d1 X,3,2,0,88,2","8s2.11s1.3p4.1d1 C,3,2,0,87,5",0.5,1.0,1.0
TiO 1,4787.5848,-0.841,0.7181616391901154,57.0,3.307140225135465,58.0,99.0,99.0,99.0,7.295,0.0,0.0,0.001,_                             3 wl:PPN2012   3 gf:PPN2012   3 PPN2012   3 PPN2012   3 PPN2012   3 PPN2012   3 PPN2012   3 PPN2012   3 PPN2012    (46)TiO,"8s2.9s1.3p4.1d1 X,3,2,0,57,4","8s2.11s1.3p4.1d1 C,3,2,0,58,7",0.5,1.0,1.0
Fe 1,4787.5861,-5.672000000000001,3.2514817351439658,3.0,5.840459614379389,4.0,1.34,0.88,0.2,7.51,-5.99,-7.82,0.009000000000000001,_          Kurucz Fe I 2014   5 wl:K14   5 gf:K14   5 K14   5 K14   5 K14   5 K14   5 K14   5 K14   5 K14    Fe,3d7.(2D2).4s a3D,3d6.(3H).4s.4p.(3P*) z3H*,0.5,1.0,1.0
TiO 1,4787.5907,-1.077,0.09834642275834092,36.0,2.68737111842673,35.0,99.0,99.0,99.0,7.3229999999999995,0.0,0.0,0.006999999999999999,_          0.0910007          4 wl:PPN2012   4 gf:PPN2012   4 PPN2012   4 PPN2012   4 PPN2012   4 PPN2012   4 PPN2012   4 PPN2012   4 PPN2012    (50)TiO,"8s2.9s1.3p4.1d1 X,3,2,0,36,0","8s2.11s1.3p4.1d1 C,3,2,0,35,2",0.5,1.0,1.0
TiO 1,4787.599,-1.0759999999999998,0.08606504409373998,36.0,2.6750732498638654,35.0,99.0,99.0,99.0,7.322,0.0,0.0,0.008,_          0.0689528          4 wl:PPN2012   4 gf:PPN2012   4 PPN2012   4 PPN2012   4 PPN2012   4 PPN2012   4 PPN2012   4 PPN2012   4 PPN2012    (50)TiO,"8s2.9s1.3p4.1d1 X,3,2,0,35,0","8s2.11s1.3p4.1d1 C,3,2,0,34,2",0.5,1.0,1.0
TiO 1,4787.6024,-0.413,0.9349613119710214,57.0,3.5239304379221044,57.0,99.0,99.0,99.0,7.482,0.0,0.0,0.001,_                             6 wl:PPN2012   6 gf:PPN2012   6 PPN2012   6 PPN2012   6 PPN2012   6 PPN2012   6 PPN2012   6 PPN2012   6 PPN2012    (48)TiO,"8s2.9s1.3p4.1d1 X,3,2,-,56,6","8s2.3p4.4p1.1d1 B,3,1,+,56,10",0.5,1.0,1.0
TiO 1,4787.6073,-1.085,0.10203079916246195,34.0,2.691053201123198,33.0,99.0,99.0,99.0,7.3229999999999995,0.0,0.0,0.006999999999999999,_          0.103476           8 wl:PPN2012   8 gf:PPN2012   8 PPN2012   8 PPN2012   8 PPN2012   8 PPN2012   8 PPN2012   8 PPN2012   8 PPN2012    (49)TiO,"8s2.9s1.3p4.1d1 X,3,2,0,35,0","8s2.11s1.3p4.1d1 C,3,2,0,34,2",0.5,1.0,1.0
TiO 1,4787.6081,-1.024,0.6079909675032459,40.0,3.196956956654133,39.0,99.0,99.0,99.0,7.306,0.0,0.0,0.001,_                             2 wl:PPN2012   2 gf:PPN2012   2 PPN2012   2 PPN2012   2 PPN2012   2 PPN2012   2 PPN2012   2 PPN2012   2 PPN2012    (47)TiO,"8s2.9s1.3p4.1d1 X,3,2,0,40,4","8s2.11s1.3p4.1d1 C,3,2,0,39,7",0.5,1.0,1.0
TiO 1,4787.6123,-1.035,0.615606920004404,39.0,3.204570702236576,38.0,99.0,99.0,99.0,7.306,0.0,0.0,0.001,_                             2 wl:PPN2012   2 gf:PPN2012   2 PPN2012   2 PPN2012   2 PPN2012   2 PPN2012   2 PPN2012   2 PPN2012   2 PPN2012    (47)TiO,"8s2.9s1.3p4.1d1 X,3,2,0,40,4","8s2.11s1.3p4.1d1 C,3,2,0,39,7",0.5,1.0,1.0
MgH 1,4787.6148,-2.004,0.5659506661918898,9.5,3.1549130474026303,10.5,99.0,99.0,99.0,7.06,0.0,0.0,0.004,_                            18 wl:KMGH  18 gf:KMGH  18 KMGH  18 KMGH  18 KMGH  18 KMGH  18 KMGH  18 KMGH  18 KMGH    (24)MgH,"4s2.5s1 X,2,0,e,9,3","4s1.5s2/4s2.7s1/4s2.6s1 B,2,0,e,10,4",0.5,1.0,1.0
MgH 1,4787.6148,-2.0469999999999997,0.5659506661918898,8.5,3.1549130474026303,9.5,99.0,99.0,99.0,7.06,0.0,0.0,0.004,_                            18 wl:KMGH  18 gf:KMGH  18 KMGH  18 KMGH  18 KMGH  18 KMGH  18 KMGH  18 KMGH  18 KMGH    (24)MgH,"4s2.5s1 X,2,0,f,9,3","4s1.5s2/4s2.7s1/4s2.6s1 B,2,0,f,10,4",0.5,1.0,1.0
TiO 1,4787.6194,-0.682,0.2303679330247284,55.0,2.819373621915645,56.0,99.0,99.0,99.0,7.31,0.0,0.0,0.011000000000000001,_          0.0846738          3 wl:PPN2012   3 gf:PPN2012   3 PPN2012   3 PPN2012   3 PPN2012   3 PPN2012   3 PPN2012   3 PPN2012   3 PPN2012    (46)TiO,"8s2.9s1.3p4.1d1 X,3,2,0,56,0","8s2.11s1.3p4.1d1 C,3,2,0,57,2",0.5,1.0,1.0
Mo 1,4787.625,-1.982,2.4958407021274693,1.0,5.084798247954509,1.0,1.58,1.24,1.41,0.0,0.0,0.0,0.003,_          Cu 1 - Ba 2 Bell  17 wl:WBb  17 gf:WBb  17 WBb  17 WBb  17 WBb  17 WBb  17 WBb  17 WBb  17 WBb    Mo,4d5.(4D).5s b5D,4d5.(4G).5p y5F*,0.5,1.0,1.0
TiO 1,4787.6292,0.223,1.3103308344731615,86.0,3.899285528663659,86.0,99.0,99.0,99.0,7.584,0.0,0.0,0.001,_                             6 wl:PPN2012   6 gf:PPN2012   6 PPN2012   6 PPN2012   6 PPN2012   6 PPN2012   6 PPN2012   6 PPN2012   6 PPN2012    (48)TiO,"8s2.9s1.3p4.1d1 X,3,2,-,85,7","8s2.3p4.4p1.1d1 B,3,1,+,85,10",0.5,1.0,1.0
Ti 1,4787.6352,-3.28,0.8181425828189642,2.0,3.4070939294361295,3.0,0.99,1.36,1.73,6.97,-6.09,-7.78,0.845,E0.04      Kurucz TiI 2016   22 wl:K16  24 gf:LGWSC  22 K16  22 K16  22 K16  22 K16  22 K16  22 K16  22 K16    Ti,3d3.(4F).4s a5F,3d2.(1D).4s.4p.(3P*) x3D*,1.096478196143185,1.0,1.0
MgH 1,4787.6354,-2.151,0.5443873345678852,7.5,3.1333385572008536,6.5,99.0,99.0,99.0,7.06,0.0,0.0,0.003,_                            18 wl:KMGH  18 gf:KMGH  18 KMGH  18 KMGH  18 KMGH  18 KMGH  18 KMGH  18 KMGH  18 KMGH    (24)MgH,"4s2.5s1 X,2,0,e,7,3","4s1.5s2/4s2.7s1/4s2.6s1 B,2,0,e,6,4",0.5,1.0,1.0
MgH 1,4787.6354,-2.213,0.5443873345678852,6.5,3.1333385572008536,5.5,99.0,99.0,99.0,7.06,0.0,0.0,0.003,_                            18 wl:KMGH  18 gf:KMGH  18 KMGH  18 KMGH  18 KMGH  18 KMGH  18 KMGH  18 KMGH  18 KMGH    (24)MgH,"4s2.5s1 X,2,0,f,7,3","4s1.5s2/4s2.7s1/4s2.6s1 B,2,0,f,6,4",0.5,1.0,1.0
MgH 1,4787.6574,-1.045,0.38437804071244297,7.5,2.973317360862454,7.5,99.0,99.0,99.0,7.39,0.0,0.0,0.073,_                            18 wl:KMGH  18 gf:KMGH  18 KMGH  18 KMGH  18 KMGH  18 KMGH  18 KMGH  18 KMGH  18 KMGH    (24)MgH,"4s2.5s1 X,2,0,e,7,2","4s2.2p1 A,2,1,f,7,3",0.5,1.0,1.0
TiO 1,4787.6758,0.10400000000000001,0.7059873084816102,56.0,3.2949167470910825,57.0,99.0,99.0,99.0,7.296,0.0,0.0,0.011000000000000001,_                             6 wl:PPN2012   6 gf:PPN2012   6 PPN2012   6 PPN2012   6 PPN2012   6 PPN2012   6 PPN2012   6 PPN2012   6 PPN2012    (48)TiO,"8s2.9s1.3p4.1d1 X,3,2,0,56,4","8s2.11s1.3p4.1d1 C,3,2,0,57,7",0.5,1.0,1.0
TiO 1,4787.6769,-0.8029999999999999,0.6665409673544649,68.0,3.2557911778796322,67.0,99.0,99.0,99.0,7.292000000000001,0.0,0.0,0.002,_          0.594348           8 wl:PPN2012   8 gf:PPN2012   8 PPN2012   8 PPN2012   8 PPN2012   8 PPN2012   8 PPN2012   8 PPN2012   8 PPN2012    (49)TiO,"8s2.9s1.3p4.1d1 X,3,2,0,67,3","8s2.11s1.3p4.1d1 C,3,2,0,66,6",0.5,1.0,1.0
TiO 1,4787.6944,-0.8220000000000001,0.6785402199777225,68.0,3.26689359081049,67.0,99.0,99.0,99.0,7.292000000000001,0.0,0.0,0.001,_          -1.04680           4 wl:PPN2012   4 gf:PPN2012   4 PPN2012   4 PPN2012   4 PPN2012   4 PPN2012   4 PPN2012   4 PPN2012   4 PPN2012    (50)TiO,"8s2.9s1.3p4.1d1 X,3,2,0,68,3","8s2.11s1.3p4.1d1 C,3,2,0,67,6",0.5,1.0,1.0
MgH 1,4787.6966,-1.083,0.2910667897912404,19.5,2.879984908643484,19.5,99.0,99.0,99.0,7.39,0.0,0.0,0.09,_                            18 wl:KMGH  18 gf:KMGH  18 KMGH  18 KMGH  18 KMGH  18 KMGH  18 KMGH  18 KMGH  18 KMGH    (24)MgH,"4s2.5s1 X,2,0,f,20,0","4s2.2p1 A,2,1,e,20,1",0.5,1.0,1.0
MgH 1,4787.7161,-1.178,0.37510055118414826,5.5,2.964008131379607,5.5,99.0,99.0,99.0,7.39,0.0,0.0,0.055999999999999994,_                            18 wl:KMGH  18 gf:KMGH  18 KMGH  18 KMGH  18 KMGH  18 KMGH  18 KMGH  18 KMGH  18 KMGH    (24)MgH,"4s2.5s1 X,2,0,f,6,2","4s2.2p1 A,2,1,e,6,3",0.5,1.0,1.0
TiO 1,4787.7199,0.068,1.1054708895023075,32.0,3.694376473552187,31.0,99.0,99.0,99.0,7.367000000000001,0.0,0.0,0.002,_                             6 wl:PPN2012   6 gf:PPN2012   6 PPN2012   6 PPN2012   6 PPN2012   6 PPN2012   6 PPN2012   6 PPN2012   6 PPN2012    (48)TiO,"8s2.9s1.3p4.1d1 a,1,2,0,32,5","8s2.11s1.3p4.1d1 f,1,2,0,31,8",0.5,1.0,1.0
TiO 1,4787.7328,0.36200000000000004,1.205966082387003,79.0,3.7948646737281453,78.0,99.0,99.0,99.0,7.359,0.0,0.0,0.003,_                             6 wl:PPN2012   6 gf:PPN2012   6 PPN2012   6 PPN2012   6 PPN2012   6 PPN2012   6 PPN2012   6 PPN2012   6 PPN2012    (48)TiO,"8s2.9s1.3p4.1d1 a,1,2,0,79,3","8s2.11s1.3p4.1d1 f,1,2,0,78,6",0.5,1.0,1.0
TiO 1,4787.7373,-0.6659999999999999,0.23158286657415791,57.0,2.8205189879318744,58.0,99.0,99.0,99.0,7.309,0.0,0.0,0.011000000000000001,_          0.0740032          3 wl:PPN2012   3 gf:PPN2012   3 PPN2012   3 PPN2012   3 PPN2012   3 PPN2012   3 PPN2012   3 PPN2012   3 PPN2012    (46)TiO,"8s2.9s1.3p4.1d1 X,3,2,0,57,0","8s2.11s1.3p4.1d1 C,3,2,0,58,2",0.5,1.0,1.0
Cr 1,4787.7399,-1.66,3.1215940301112983,4.0,5.71048871595022,4.0,1.19,1.25,1.22,7.96,-5.59,-7.75,0.626,_          Kurucz Cr I 2016  10 wl:K16  10 gf:K16  10 K16  10 K16  10 K16  10 K16  10 K16  10 K16  10 K16    Cr,3d4.4s2 a3F,3d5.(4G).4p y3F*,0.5,1.0,1.0
TiO 1,4787.7498,-0.8859999999999999,0.7021271844775753,57.0,3.291016576191265,58.0,99.0,99.0,99.0,7.295,0.0,0.0,0.001,_                             2 wl:PPN2012   2 gf:PPN2012   2 PPN2012   2 PPN2012   2 PPN2012   2 PPN2012   2 PPN2012   2 PPN2012   2 PPN2012    (47)TiO,"8s2.9s1.3p4.1d1 X,3,2,0,56,4","8s2.11s1.3p4.1d1 C,3,2,0,57,7",0.5,1.0,1.0
TiO 1,4787.7533,0.479,1.3247442453974585,112.0,3.913631740152927,111.0,99.0,99.0,99.0,7.235,0.0,0.0,0.002,_                             6 wl:PPN2012   6 gf:PPN2012   6 PPN2012   6 PPN2012   6 PPN2012   6 PPN2012   6 PPN2012   6 PPN2012   6 PPN2012    (48)TiO,"8s2.9s1.3p4.1d1 X,3,2,0,113,4","8s2.11s1.3p4.1d1 C,3,2,0,112,8",0.5,1.0,1.0
MgH 1,4787.7716,-1.801,0.1816772681421117,2.5,2.7705548441617824,3.5,99.0,99.0,99.0,7.39,0.0,0.0,0.027000000000000003,_                            18 wl:KMGH  18 gf:KMGH  18 KMGH  18 KMGH  18 KMGH  18 KMGH  18 KMGH  18 KMGH  18 KMGH    (24)MgH,"4s2.5s1 X,2,0,e,2,1","4s2.2p1 A,2,1,e,3,2",0.5,1.0,1.0
TiO 1,4787.7725,-0.865,0.2133433405111918,55.0,2.802261818917608,56.0,99.0,99.0,99.0,7.31,0.0,0.0,0.008,_          0.0765480          8 wl:PPN2012   8 gf:PPN2012   8 PPN2012   8 PPN2012   8 PPN2012   8 PPN2012   8 PPN2012   8 PPN2012   8 PPN2012    (49)TiO,"8s2.9s1.3p4.1d1 X,3,2,0,55,0","8s2.11s1.3p4.1d1 C,3,2,0,56,2",0.5,1.0,1.0
TiO 1,4787.7811,0.483,0.8584556478769442,105.0,3.4472560065384306,104.0,99.0,99.0,99.0,7.257000000000001,0.0,0.0,0.015,_          -0.133262          6 wl:PPN2012   6 gf:PPN2012   6 PPN2012   6 PPN2012   6 PPN2012   6 PPN2012   6 PPN2012   6 PPN2012   6 PPN2012    (48)TiO,"8s2.9s1.3p4.1d1 X,3,2,0,105,1","8s2.11s1.3p4.1d1 C,3,2,0,104,4",0.5,1.0,1.0
TiO 1,4787.8015,-0.8390000000000001,0.10289749829645713,39.0,2.6917892953035776,38.0,99.0,99.0,99.0,7.321000000000001,0.0,0.0,0.012,_          0.0561201          3 wl:PPN2012   3 gf:PPN2012   3 PPN2012   3 PPN2012   3 PPN2012   3 PPN2012   3 PPN2012   3 PPN2012   3 PPN2012    (46)TiO,"8s2.9s1.3p4.1d1 X,3,2,0,38,0","8s2.11s1.3p4.1d1 C,3,2,0,37,2",0.5,1.0,1.0
TiO 1,4787.8112,0.098,0.7124787243117142,55.0,3.3013349130573215,56.0,99.0,99.0,99.0,7.296,0.0,0.0,0.011000000000000001,_                             6 wl:PPN2012   6 gf:PPN2012   6 PPN2012   6 PPN2012   6 PPN2012   6 PPN2012   6 PPN2012   6 PPN2012   6 PPN2012    (48)TiO,"8s2.9s1.3p4.1d1 X,3,2,0,56,4","8s2.11s1.3p4.1d1 C,3,2,0,57,7",0.5,1.0,1.0
Fe 1,4787.8264,-2.53,2.9980447692058965,3.0,5.586892713002372,3.0,1.91,1.51,1.71,7.99,-5.38,-7.218999999999999,0.823,_          Kurucz Fe I 2014   5 wl:K14  35 gf:BKK   5 K14   5 K14   5 K14   5 K14   5 K14  25 BPM   5 K14    Fe,3d6.(5D).4s.4p.(3P*) z7P*,3d6.(5D).4s\ (6D).5s e5D,0.5,1.0,1.0
TiO 1,4787.8378,-0.8809999999999999,0.21269723406133548,53.0,2.8015853611362114,54.0,99.0,99.0,99.0,7.311,0.0,0.0,0.006999999999999999,_          0.0856379          8 wl:PPN2012   8 gf:PPN2012   8 PPN2012   8 PPN2012   8 PPN2012   8 PPN2012   8 PPN2012   8 PPN2012   8 PPN2012    (49)TiO,"8s2.9s1.3p4.1d1 X,3,2,0,54,0","8s2.11s1.3p4.1d1 C,3,2,0,55,2",0.5,1.0,1.0
TiO 1,4787.8659,0.062,0.10710417053084081,35.0,2.695985912419547,34.0,99.0,99.0,99.0,7.322,0.0,0.0,0.095,_          0.102148           6 wl:PPN2012   6 gf:PPN2012   6 PPN2012   6 PPN2012   6 PPN2012   6 PPN2012   6 PPN2012   6 PPN2012   6 PPN2012    (48)TiO,"8s2.9s1.3p4.1d1 X,3,2,0,36,0","8s2.11s1.3p4.1d1 C,3,2,0,35,2",0.5,1.0,1.0
TiO 1,4787.887,-0.84,0.11538228543542754,39.0,2.7042456156708092,38.0,99.0,99.0,99.0,7.321000000000001,0.0,0.0,0.012,_          0.0890745          3 wl:PPN2012   3 gf:PPN2012   3 PPN2012   3 PPN2012   3 PPN2012   3 PPN2012   3 PPN2012   3 PPN2012   3 PPN2012    (46)TiO,"8s2.9s1.3p4.1d1 X,3,2,0,39,0","8s2.11s1.3p4.1d1 C,3,2,0,38,2",0.5,1.0,1.0
TiO 1,4787.8916,0.55,1.090437693973277,121.0,3.678843609308932,122.0,99.0,99.0,99.0,7.229,0.0,0.0,0.006999999999999999,_          -0.752398          6 wl:PPN2012   6 gf:PPN2012   6 PPN2012   6 PPN2012   6 PPN2012   6 PPN2012   6 PPN2012   6 PPN2012   6 PPN2012    (48)TiO,"8s2.9s1.3p4.1d1 X,3,2,0,121,1","8s2.11s1.3p4.1d1 C,3,2,0,122,4",0.5,1.0,1.0
TiO 1,4787.9067,0.278,0.20818077491115294,56.0,2.7969829437419222,57.0,99.0,99.0,99.0,7.31,0.0,0.0,0.106,_          -0.00454259        6 wl:PPN2012   6 gf:PPN2012   6 PPN2012   6 PPN2012   6 PPN2012   6 PPN2012   6 PPN2012   6 PPN2012   6 PPN2012    (48)TiO,"8s2.9s1.3p4.1d1 X,3,2,0,55,0","8s2.11s1.3p4.1d1 C,3,2,0,56,2",0.5,1.0,1.0
W 1,4787.924,-1.93,1.6550104989818417,3.0,4.243805501525998,3.0,0.92,99.0,99.0,0.0,0.0,0.0,0.016,_          Hf 1 - U 2 Bell   36 wl:CB  36 gf:CB  36 CB  36 CB  36 CB  36 CB  36 CB  36 CB  36 CB    W,5d4.6s2 a3G,* *,0.5,1.0,1.0
TiO 1,4787.9353,-1.046,0.09129151114915497,37.0,2.6801154392065807,36.0,99.0,99.0,99.0,7.322,0.0,0.0,0.008,_          0.0644844          8 wl:PPN2012   8 gf:PPN2012   8 PPN2012   8 PPN2012   8 PPN2012   8 PPN2012   8 PPN2012   8 PPN2012   8 PPN2012    (49)TiO,"8s2.9s1.3p4.1d1 X,3,2,0,36,0","8s2.11s1.3p4.1d1 C,3,2,0,35,2",0.5,1.0,1.0
TiO 1,4787.9364,0.102,1.1488680738707766,80.0,3.737656505252467,79.0,99.0,99.0,99.0,7.263999999999999,0.0,0.0,0.002,_                             6 wl:PPN2012   6 gf:PPN2012   6 PPN2012   6 PPN2012   6 PPN2012   6 PPN2012   6 PPN2012   6 PPN2012   6 PPN2012    (48)TiO,"8s2.9s1.3p4.1d1 X,3,2,0,80,6","8s2.11s1.3p4.1d1 C,3,2,0,79,10",0.5,1.0,1.0
TiO 1,4787.9472,0.099,1.1541071377206547,79.0,3.742889754243483,78.0,99.0,99.0,99.0,7.263999999999999,0.0,0.0,0.002,_                             6 wl:PPN2012   6 gf:PPN2012   6 PPN2012   6 PPN2012   6 PPN2012   6 PPN2012   6 PPN2012   6 PPN2012   6 PPN2012    (48)TiO,"8s2.9s1.3p4.1d1 X,3,2,0,80,6","8s2.11s1.3p4.1d1 C,3,2,0,79,10",0.5,1.0,1.0
TiO 1,4787.9545,-1.047,0.10363424959308386,37.0,2.692461909574853,36.0,99.0,99.0,99.0,7.322,0.0,0.0,0.008,_          0.0903787          8 wl:PPN2012   8 gf:PPN2012   8 PPN2012   8 PPN2012   8 PPN2012   8 PPN2012   8 PPN2012   8 PPN2012   8 PPN2012    (49)TiO,"8s2.9s1.3p4.1d1 X,3,2,0,37,0","8s2.11s1.3p4.1d1 C,3,2,0,36,2",0.5,1.0,1.0
Mn 1,4787.9616,-3.825,3.7723136496434715,1.5,6.361088465700516,2.5,1.21,1.59,1.88,7.21,-6.27,-7.82,0.008,"_          Kurucz MnI 2007   39 wl:K07  39 gf:K07  39 K07  39 K07  39 K07  39 K07  39 K07  39 K07  39 K07   hfs:BBAOKb,BPPN Mn",3d5.4s2 b4D,3d5.(4P).4s.4p.(3P*) x4P*,0.5,1.0,1.0
TiO 1,4787.9633,0.452,1.3454921329547023,81.0,3.9342660581852877,82.0,99.0,99.0,99.0,7.349,0.0,0.0,0.002,_                             6 wl:PPN2012   6 gf:PPN2012   6 PPN2012   6 PPN2012   6 PPN2012   6 PPN2012   6 PPN2012   6 PPN2012   6 PPN2012    (48)TiO,"8s2.9s1.3p4.1d1 a,1,2,0,81,4","8s2.11s1.3p4.1d1 f,1,2,0,82,7",0.5,1.0,1.0