species,wlcent,gflog,excit,j_lo,e_upp,j_up,lande_lower,lande_upper,lande,gamrad,gamqst,gamvw,depth,reference,term_lower,term_upper,error,atom_number,ionization
Ce 2,4833.8221,-1.85,1.1225069257572708,3.5,3.686721317247789,4.5,1.03,1.11,1.26,0.0,0.0,0.0,0.03,C-0.071    Ce 2: DREAM data  15 wl:PQWB  15 gf:PQWB  15 PQWB  15 PQWB  15 PQWB  15 PQWB  15 PQWB  15 PQWB  15 PQWB    Ce+,4f2.(3F).6s 2F,"4f2.(3H<5>).6p.<3/2> (5,3/2)*",0.071,1.0,2.0
TiO 1,4833.8382,-0.59,0.36104732675192147,58.0,2.925326921531889,59.0,99.0,99.0,99.0,7.307,0.0,0.0,0.008,_          0.138876           2 wl:PPN2012   2 gf:PPN2012   2 PPN2012   2 PPN2012   2 PPN2012   2 PPN2012   2 PPN2012   2 PPN2012   2 PPN2012    (47)TiO,"8s2.9s1.3p4.1d1 X,3,2,0,58,1","8s2.11s1.3p4.1d1 C,3,2,0,59,3",0.5,1.0,1.0
TiO 1,4833.8532,-0.779,0.3041452132676977,68.0,2.8683400648486947,67.0,99.0,99.0,99.0,7.3020000000000005,0.0,0.0,0.006999999999999999,_          -0.00582391        8 wl:PPN2012   8 gf:PPN2012   8 PPN2012   8 PPN2012   8 PPN2012   8 PPN2012   8 PPN2012   8 PPN2012   8 PPN2012    (49)TiO,"8s2.9s1.3p4.1d1 X,3,2,0,67,0","8s2.11s1.3p4.1d1 C,3,2,0,66,2",0.5,1.0,1.0
TiO 1,4833.8547,-0.902,0.23683323778284518,39.0,2.8010793816263355,38.0,99.0,99.0,99.0,7.32,0.0,0.0,0.006,_          0.0925393          8 wl:PPN2012   8 gf:PPN2012   8 PPN2012   8 PPN2012   8 PPN2012   8 PPN2012   8 PPN2012   8 PPN2012   8 PPN2012    (49)TiO,"8s2.9s1.3p4.1d1 X,3,2,0,39,1","8s2.11s1.3p4.1d1 C,3,2,0,38,3",0.5,1.0,1.0
Fe 2,4833.8574,-5.178999999999999,2.844117024220561,2.5,5.408312694097261,1.5,1.02,2.4,-0.02,8.49,-6.53,-7.91,0.024,_          Kurucz FeII 2013  20 wl:K13  21 gf:RU  20 K13  20 K13  20 K13  20 K13  20 K13  20 K13  20 K13    Fe+,3d6.(3F2).4s b4F,3d6.(5D).4p z6P*,0.5,1.0,2.0
TiO 1,4833.867,-0.955,0.23388325697559892,36.0,2.7981171511803793,35.0,99.0,99.0,99.0,7.321000000000001,0.0,0.0,0.006,_          0.0815641          4 wl:PPN2012   4 gf:PPN2012   4 PPN2012   4 PPN2012   4 PPN2012   4 PPN2012   4 PPN2012   4 PPN2012   4 PPN2012    (50)TiO,"8s2.9s1.3p4.1d1 X,3,2,0,37,1","8s2.11s1.3p4.1d1 C,3,2,0,36,3",0.5,1.0,1.0
TiO 1,4833.8677,-0.33799999999999997,0.7275790324868354,38.0,3.291769284254106,37.0,99.0,99.0,99.0,7.3020000000000005,0.0,0.0,0.004,_                             6 wl:PPN2012   6 gf:PPN2012   6 PPN2012   6 PPN2012   6 PPN2012   6 PPN2012   6 PPN2012   6 PPN2012   6 PPN2012    (48)TiO,"8s2.9s1.3p4.1d1 X,3,2,0,39,5","8s2.11s1.3p4.1d1 C,3,2,0,38,8",0.5,1.0,1.0
MgH 1,4833.8752,-1.558,0.1681652223334223,14.5,2.732351469411115,13.5,99.0,99.0,99.0,7.39,0.0,0.0,0.048,_                            18 wl:KMGH  18 gf:KMGH  18 KMGH  18 KMGH  18 KMGH  18 KMGH  18 KMGH  18 KMGH  18 KMGH    (24)MgH,"4s2.5s1 X,2,0,f,15,0","4s2.2p1 A,2,1,f,14,1",0.5,1.0,1.0
Mo 1,4833.896,-2.116,2.523141278505207,3.0,5.087316367005127,2.0,1.5,1.05,1.94,0.0,0.0,0.0,0.002,_          Cu 1 - Ba 2 Bell  17 wl:WBb  17 gf:WBb  17 WBb  17 WBb  17 WBb  17 WBb  17 WBb  17 WBb  17 WBb    Mo,4d5.(4D).5s b5D,4d5.(4G).5p y5F*,0.5,1.0,1.0
TiO 1,4833.9073,-0.735,0.35055309350491426,57.0,2.914794959893592,58.0,99.0,99.0,99.0,7.308,0.0,0.0,0.006,_          0.136976           8 wl:PPN2012   8 gf:PPN2012   8 PPN2012   8 PPN2012   8 PPN2012   8 PPN2012   8 PPN2012   8 PPN2012   8 PPN2012    (49)TiO,"8s2.9s1.3p4.1d1 X,3,2,0,57,1","8s2.11s1.3p4.1d1 C,3,2,0,58,3",0.5,1.0,1.0
TiO 1,4833.9334,0.215,1.301182908431223,47.0,3.865338407427943,46.0,99.0,99.0,99.0,7.356,0.0,0.0,0.001,_                             6 wl:PPN2012   6 gf:PPN2012   6 PPN2012   6 PPN2012   6 PPN2012   6 PPN2012   6 PPN2012   6 PPN2012   6 PPN2012    (48)TiO,"8s2.9s1.3p4.1d1 a,1,2,0,47,6","8s2.11s1.3p4.1d1 f,1,2,0,46,9",0.5,1.0,1.0
TiO 1,4833.9354,0.205,1.2289521202785578,89.0,3.7931064538238215,89.0,99.0,99.0,99.0,7.504,0.0,0.0,0.002,_                             6 wl:PPN2012   6 gf:PPN2012   6 PPN2012   6 PPN2012   6 PPN2012   6 PPN2012   6 PPN2012   6 PPN2012   6 PPN2012    (48)TiO,"8s2.9s1.3p4.1d1 X,3,2,-,88,6","8s2.3p4.4p1.1d1 B,3,1,+,88,9",0.5,1.0,1.0
TiO 1,4833.9566,0.502,1.496242410927273,126.0,4.060385511504246,125.0,99.0,99.0,99.0,7.2139999999999995,0.0,0.0,0.001,_                             6 wl:PPN2012   6 gf:PPN2012   6 PPN2012   6 PPN2012   6 PPN2012   6 PPN2012   6 PPN2012   6 PPN2012   6 PPN2012    (48)TiO,"8s2.9s1.3p4.1d1 X,3,2,0,125,4","8s2.11s1.3p4.1d1 C,3,2,0,124,8",0.5,1.0,1.0
TiO 1,4833.9573,-0.648,0.3274574163875369,67.0,2.8916404150792556,66.0,99.0,99.0,99.0,7.3020000000000005,0.0,0.0,0.008,_          0.0759262          2 wl:PPN2012   2 gf:PPN2012   2 PPN2012   2 PPN2012   2 PPN2012   2 PPN2012   2 PPN2012   2 PPN2012   2 PPN2012    (47)TiO,"8s2.9s1.3p4.1d1 X,3,2,0,68,0","8s2.11s1.3p4.1d1 C,3,2,0,67,2",0.5,1.0,1.0
TiO 1,4833.9619,-0.5379999999999999,0.3566127963594272,59.0,2.9207992666086753,60.0,99.0,99.0,99.0,7.306,0.0,0.0,0.009000000000000001,_          0.0870892          3 wl:PPN2012   3 gf:PPN2012   3 PPN2012   3 PPN2012   3 PPN2012   3 PPN2012   3 PPN2012   3 PPN2012   3 PPN2012    (46)TiO,"8s2.9s1.3p4.1d1 X,3,2,0,58,1","8s2.11s1.3p4.1d1 C,3,2,0,59,3",0.5,1.0,1.0
Mo 1,4833.965,-0.674,3.501439456532628,6.0,6.06557821766269,5.0,1.01,0.97,1.13,0.0,0.0,0.0,0.002,_          Cu 1 - Ba 2 Bell  17 wl:WBb  17 gf:WBb  17 WBb  17 WBb  17 WBb  17 WBb  17 WBb  17 WBb  17 WBb    Mo,4d5.(2I).5s a1I,4d5.(2I).5p z1H*,0.5,1.0,1.0
TiO 1,4833.9703,-0.726,0.7680526694789589,64.0,3.33218850458196,64.0,99.0,99.0,99.0,7.348,0.0,0.0,0.001,_                             6 wl:PPN2012   6 gf:PPN2012   6 PPN2012   6 PPN2012   6 PPN2012   6 PPN2012   6 PPN2012   6 PPN2012   6 PPN2012    (48)TiO,"8s2.9s1.3p4.1d1 X,3,2,+,64,4","8s2.3p4.4p1.1d1 B,3,1,-,64,8",0.5,1.0,1.0
CH 1,4833.971,-3.13,0.4078736660540194,5.5,2.9720092035949466,6.5,99.0,99.0,99.0,6.27,0.0,0.0,0.008,_                            37 wl:JLIY  37 gf:JLIY  37 JLIY  37 JLIY  37 JLIY  37 JLIY  37 JLIY  37 JLIY  37 JLIY    (12)CH,"1s2.2s2.3s2.1p1 X,2,1,f,6,1","1s2.2s2.3s1.1p2 A,2,2,f,7,0",0.5,1.0,1.0
TiO 1,4833.973,0.158,0.8021011229992671,68.0,3.3662355570808367,67.0,99.0,99.0,99.0,7.287999999999999,0.0,0.0,0.009000000000000001,_                             6 wl:PPN2012   6 gf:PPN2012   6 PPN2012   6 PPN2012   6 PPN2012   6 PPN2012   6 PPN2012   6 PPN2012   6 PPN2012    (48)TiO,"8s2.9s1.3p4.1d1 X,3,2,0,68,4","8s2.11s1.3p4.1d1 C,3,2,0,67,7",0.5,1.0,1.0
TiO 1,4833.9767,-0.521,0.8527007601719115,58.0,3.416833136115803,58.0,99.0,99.0,99.0,7.41,0.0,0.0,0.001,_                             6 wl:PPN2012   6 gf:PPN2012   6 PPN2012   6 PPN2012   6 PPN2012   6 PPN2012   6 PPN2012   6 PPN2012   6 PPN2012    (48)TiO,"8s2.9s1.3p4.1d1 X,3,2,+,59,5","8s2.3p4.4p1.1d1 B,3,1,-,59,9",0.5,1.0,1.0
TiO 1,4833.9879,-0.67,0.4838687260276554,86.0,3.047977297005633,87.0,99.0,99.0,99.0,7.282,0.0,0.0,0.004,_          -0.0336505         8 wl:PPN2012   8 gf:PPN2012   8 PPN2012   8 PPN2012   8 PPN2012   8 PPN2012   8 PPN2012   8 PPN2012   8 PPN2012    (49)TiO,"8s2.9s1.3p4.1d1 X,3,2,0,85,0","8s2.11s1.3p4.1d1 C,3,2,0,86,2",0.5,1.0,1.0
TiO 1,4834.0019,-0.532,0.8872488204143453,89.0,3.451573260278538,88.0,99.0,99.0,99.0,7.272,0.0,0.0,0.001,_          0.387157           3 wl:PPN2012   3 gf:PPN2012   3 PPN2012   3 PPN2012   3 PPN2012   3 PPN2012   3 PPN2012   3 PPN2012   3 PPN2012    (46)TiO,"8s2.9s1.3p4.1d1 X,3,2,0,88,3","8s2.11s1.3p4.1d1 C,3,2,0,87,6",0.5,1.0,1.0
TiO 1,4834.0072,0.593,1.2112975516592557,120.0,3.774735219347883,121.0,99.0,99.0,99.0,7.228,0.0,0.0,0.005,_          -1.27961           6 wl:PPN2012   6 gf:PPN2012   6 PPN2012   6 PPN2012   6 PPN2012   6 PPN2012   6 PPN2012   6 PPN2012   6 PPN2012    (48)TiO,"8s2.9s1.3p4.1d1 X,3,2,0,121,2","8s2.11s1.3p4.1d1 C,3,2,0,122,5",0.5,1.0,1.0
TiO 1,4834.0138,0.212,0.9632259150777679,83.0,3.5273386395263606,84.0,99.0,99.0,99.0,7.272,0.0,0.0,0.006,_                             6 wl:PPN2012   6 gf:PPN2012   6 PPN2012   6 PPN2012   6 PPN2012   6 PPN2012   6 PPN2012   6 PPN2012   6 PPN2012    (48)TiO,"8s2.9s1.3p4.1d1 X,3,2,0,84,4","8s2.11s1.3p4.1d1 C,3,2,0,85,7",0.5,1.0,1.0
TiO 1,4834.0498,-0.539,0.8107402178947881,56.0,3.37483386117539,56.0,99.0,99.0,99.0,7.405,0.0,0.0,0.002,_                             6 wl:PPN2012   6 gf:PPN2012   6 PPN2012   6 PPN2012   6 PPN2012   6 PPN2012   6 PPN2012   6 PPN2012   6 PPN2012    (48)TiO,"8s2.9s1.3p4.1d1 X,3,2,-,55,5","8s2.3p4.4p1.1d1 B,3,1,+,55,9",0.5,1.0,1.0
Ce 1,4834.052,-0.594,0.29372699473215946,3.0,2.8578192617881695,2.0,0.6,0.95,0.25,0.0,0.0,0.0,0.061,_          La1 to Lu 2 Bell   1 wl:CB   1 gf:CB   1 CB   1 CB   1 CB   1 CB   1 CB   1 CB   1 CB    Ce,4f.(2F*)\ .5d2.(3F).6s.\ (4F)    5H*, ,0.5,1.0,1.0
TiO 1,4834.0538,0.596,1.2075897174449735,121.0,3.7706186960234795,122.0,99.0,99.0,99.0,7.227,0.0,0.0,0.005,_          -2.00407           6 wl:PPN2012   6 gf:PPN2012   6 PPN2012   6 PPN2012   6 PPN2012   6 PPN2012   6 PPN2012   6 PPN2012   6 PPN2012    (48)TiO,"8s2.9s1.3p4.1d1 X,3,2,0,121,2","8s2.11s1.3p4.1d1 C,3,2,0,122,5",0.5,1.0,1.0
TiO 1,4834.0548,0.39799999999999996,1.3477285599086684,69.0,3.9118195871227037,68.0,99.0,99.0,99.0,7.352,0.0,0.0,0.002,_                             6 wl:PPN2012   6 gf:PPN2012   6 PPN2012   6 PPN2012   6 PPN2012   6 PPN2012   6 PPN2012   6 PPN2012   6 PPN2012    (48)TiO,"8s2.9s1.3p4.1d1 a,1,2,0,69,5","8s2.11s1.3p4.1d1 f,1,2,0,68,8",0.5,1.0,1.0
TiO 1,4834.0578,0.355,0.3201567309037059,68.0,2.884279225307059,67.0,99.0,99.0,99.0,7.3020000000000005,0.0,0.0,0.084,_          0.0624593          6 wl:PPN2012   6 gf:PPN2012   6 PPN2012   6 PPN2012   6 PPN2012   6 PPN2012   6 PPN2012   6 PPN2012   6 PPN2012    (48)TiO,"8s2.9s1.3p4.1d1 X,3,2,0,68,0","8s2.11s1.3p4.1d1 C,3,2,0,67,2",0.5,1.0,1.0
TiO 1,4834.0584,0.091,0.7455828769888305,69.0,3.309671982447805,70.0,99.0,99.0,99.0,7.392,0.0,0.0,0.009000000000000001,_                             6 wl:PPN2012   6 gf:PPN2012   6 PPN2012   6 PPN2012   6 PPN2012   6 PPN2012   6 PPN2012   6 PPN2012   6 PPN2012    (48)TiO,"8s2.9s1.3p4.1d1 a,1,2,0,69,0","8s2.11s1.3p4.1d1 f,1,2,0,70,2",0.5,1.0,1.0
TiO 1,4834.0789,-0.696,0.23758809077230253,41.0,2.801691987546035,40.0,99.0,99.0,99.0,7.319,0.0,0.0,0.011000000000000001,_          0.0485123          3 wl:PPN2012   3 gf:PPN2012   3 PPN2012   3 PPN2012   3 PPN2012   3 PPN2012   3 PPN2012   3 PPN2012   3 PPN2012    (46)TiO,"8s2.9s1.3p4.1d1 X,3,2,0,40,1","8s2.11s1.3p4.1d1 C,3,2,0,39,3",0.5,1.0,1.0
TiO 1,4834.0807,0.40700000000000003,0.3458647178665196,58.0,2.9099871006840954,59.0,99.0,99.0,99.0,7.307,0.0,0.0,0.085,_          0.0852227          6 wl:PPN2012   6 gf:PPN2012   6 PPN2012   6 PPN2012   6 PPN2012   6 PPN2012   6 PPN2012   6 PPN2012   6 PPN2012    (48)TiO,"8s2.9s1.3p4.1d1 X,3,2,0,57,1","8s2.11s1.3p4.1d1 C,3,2,0,58,3",0.5,1.0,1.0
TiO 1,4834.0818,-0.966,0.7146438355552954,59.0,3.278720443407165,60.0,99.0,99.0,99.0,7.341,0.0,0.0,0.001,_                             6 wl:PPN2012   6 gf:PPN2012   6 PPN2012   6 PPN2012   6 PPN2012   6 PPN2012   6 PPN2012   6 PPN2012   6 PPN2012    (48)TiO,"8s2.9s1.3p4.1d1 X,3,2,+,58,4","8s2.3p4.4p1.1d1 B,3,1,-,59,8",0.5,1.0,1.0
TiO 1,4834.0891,-0.589,0.31800787398841296,69.0,2.882077017991595,68.0,99.0,99.0,99.0,7.301,0.0,0.0,0.01,_          -0.00686231        3 wl:PPN2012   3 gf:PPN2012   3 PPN2012   3 PPN2012   3 PPN2012   3 PPN2012   3 PPN2012   3 PPN2012   3 PPN2012    (46)TiO,"8s2.9s1.3p4.1d1 X,3,2,0,68,0","8s2.11s1.3p4.1d1 C,3,2,0,67,2",0.5,1.0,1.0
TiO 1,4834.0908,-0.726,0.7680526694789589,64.0,3.3321245287360655,64.0,99.0,99.0,99.0,7.348,0.0,0.0,0.001,_                             6 wl:PPN2012   6 gf:PPN2012   6 PPN2012   6 PPN2012   6 PPN2012   6 PPN2012   6 PPN2012   6 PPN2012   6 PPN2012    (48)TiO,"8s2.9s1.3p4.1d1 X,3,2,-,64,4","8s2.3p4.4p1.1d1 B,3,1,+,64,8",0.5,1.0,1.0
TiO 1,4834.1011,-0.789,0.8023422846617662,69.0,3.366408763004703,68.0,99.0,99.0,99.0,7.287000000000001,0.0,0.0,0.001,_                             3 wl:PPN2012   3 gf:PPN2012   3 PPN2012   3 PPN2012   3 PPN2012   3 PPN2012   3 PPN2012   3 PPN2012   3 PPN2012    (46)TiO,"8s2.9s1.3p4.1d1 X,3,2,0,68,4","8s2.11s1.3p4.1d1 C,3,2,0,67,7",0.5,1.0,1.0
TiO 1,4834.1326,-0.529,0.9150616994960291,90.0,3.477082512971227,89.0,99.0,99.0,99.0,7.27,0.0,0.0,0.001,_          -3.82815           3 wl:PPN2012   3 gf:PPN2012   3 PPN2012   3 PPN2012   3 PPN2012   3 PPN2012   3 PPN2012   3 PPN2012   3 PPN2012    (46)TiO,"8s2.9s1.3p4.1d1 X,3,2,0,90,3","8s2.11s1.3p4.1d1 C,3,2,0,89,6",0.5,1.0,1.0
CH 1,4834.141,-3.074,0.4079283430851038,6.5,2.971973496146075,7.5,99.0,99.0,99.0,6.27,0.0,0.0,0.009000000000000001,_                            37 wl:JLIY  37 gf:JLIY  37 JLIY  37 JLIY  37 JLIY  37 JLIY  37 JLIY  37 JLIY  37 JLIY    (12)CH,"1s2.2s2.3s2.1p1 X,2,1,f,6,1","1s2.2s2.3s1.1p2 A,2,2,f,7,0",0.5,1.0,1.0
TiO 1,4834.1462,0.205,1.2289521202785578,89.0,3.792994620077703,89.0,99.0,99.0,99.0,7.504,0.0,0.0,0.002,_                             6 wl:PPN2012   6 gf:PPN2012   6 PPN2012   6 PPN2012   6 PPN2012   6 PPN2012   6 PPN2012   6 PPN2012   6 PPN2012    (48)TiO,"8s2.9s1.3p4.1d1 X,3,2,+,88,6","8s2.3p4.4p1.1d1 B,3,1,-,88,9",0.5,1.0,1.0
TiO 1,4834.1494,-0.552,0.3688754410117904,57.0,2.9329653399696287,58.0,99.0,99.0,99.0,7.307,0.0,0.0,0.009000000000000001,_          0.0925937          3 wl:PPN2012   3 gf:PPN2012   3 PPN2012   3 PPN2012   3 PPN2012   3 PPN2012   3 PPN2012   3 PPN2012   3 PPN2012    (46)TiO,"8s2.9s1.3p4.1d1 X,3,2,0,58,1","8s2.11s1.3p4.1d1 C,3,2,0,59,3",0.5,1.0,1.0
TiO 1,4834.1516,-0.7759999999999999,0.24616577629481656,38.0,2.810249500839621,37.0,99.0,99.0,99.0,7.32,0.0,0.0,0.008,_          0.0832269          2 wl:PPN2012   2 gf:PPN2012   2 PPN2012   2 PPN2012   2 PPN2012   2 PPN2012   2 PPN2012   2 PPN2012   2 PPN2012    (47)TiO,"8s2.9s1.3p4.1d1 X,3,2,0,39,1","8s2.11s1.3p4.1d1 C,3,2,0,38,3",0.5,1.0,1.0
TiO 1,4834.1536,-0.753,0.3356361207625921,57.0,2.899718853433817,58.0,99.0,99.0,99.0,7.308,0.0,0.0,0.006,_          0.0831816          4 wl:PPN2012   4 gf:PPN2012   4 PPN2012   4 PPN2012   4 PPN2012   4 PPN2012   4 PPN2012   4 PPN2012   4 PPN2012    (50)TiO,"8s2.9s1.3p4.1d1 X,3,2,0,56,1","8s2.11s1.3p4.1d1 C,3,2,0,57,3",0.5,1.0,1.0
CH 1,4834.157,-2.687,1.0795291675304233,7.5,3.6435660136501644,7.5,99.0,99.0,99.0,6.27,0.0,0.0,0.003,_                            37 wl:JLIY  37 gf:JLIY  37 JLIY  37 JLIY  37 JLIY  37 JLIY  37 JLIY  37 JLIY  37 JLIY    (12)CH,"1s2.2s2.3s2.1p1 X,2,1,e,8,3","1s2.2s2.3s1.1p2 A,2,2,f,8,2",0.5,1.0,1.0
TiO 1,4834.1636,0.214,0.9582120189289154,84.0,3.522245368694288,85.0,99.0,99.0,99.0,7.271,0.0,0.0,0.005,_                             6 wl:PPN2012   6 gf:PPN2012   6 PPN2012   6 PPN2012   6 PPN2012   6 PPN2012   6 PPN2012   6 PPN2012   6 PPN2012    (48)TiO,"8s2.9s1.3p4.1d1 X,3,2,0,84,4","8s2.11s1.3p4.1d1 C,3,2,0,85,7",0.5,1.0,1.0
TiO 1,4834.1761,-0.535,0.908192925362505,88.0,3.4719500631327533,87.0,99.0,99.0,99.0,7.272,0.0,0.0,0.001,_          -0.508160          3 wl:PPN2012   3 gf:PPN2012   3 PPN2012   3 PPN2012   3 PPN2012   3 PPN2012   3 PPN2012   3 PPN2012   3 PPN2012    (46)TiO,"8s2.9s1.3p4.1d1 X,3,2,0,89,3","8s2.11s1.3p4.1d1 C,3,2,0,88,6",0.5,1.0,1.0
Hf 1,4834.199,-1.34,1.7897267685849834,2.0,4.353741049580785,2.0,0.9,1.11,1.01,0.0,0.0,0.0,0.009000000000000001,_          Hf 1 - U 2 Bell   36 wl:CB  36 gf:CB  36 CB  36 CB  36 CB  36 CB  36 CB  36 CB  36 CB    Hf,5d.6s2.6p 1D*,5d3.6s b3D,0.5,1.0,1.0
TiO 1,4834.2242,0.245,0.2304084386620419,40.0,2.7944342005945293,39.0,99.0,99.0,99.0,7.319,0.0,0.0,0.091,_          0.0465325          6 wl:PPN2012   6 gf:PPN2012   6 PPN2012   6 PPN2012   6 PPN2012   6 PPN2012   6 PPN2012   6 PPN2012   6 PPN2012    (48)TiO,"8s2.9s1.3p4.1d1 X,3,2,0,39,1","8s2.11s1.3p4.1d1 C,3,2,0,38,3",0.5,1.0,1.0
TiO 1,4834.2302,-0.5770000000000001,0.8834840030629056,89.0,3.447687347561429,88.0,99.0,99.0,99.0,7.272,0.0,0.0,0.001,_          0.387157           2 wl:PPN2012   2 gf:PPN2012   2 PPN2012   2 PPN2012   2 PPN2012   2 PPN2012   2 PPN2012   2 PPN2012   2 PPN2012    (47)TiO,"8s2.9s1.3p4.1d1 X,3,2,0,88,3","8s2.11s1.3p4.1d1 C,3,2,0,87,6",0.5,1.0,1.0
Gd 2,4834.232,-1.0,1.1566317163479611,2.5,3.720628639556117,3.5,2.06,1.83,1.55,0.0,0.0,0.0,0.10300000000000001,E 0.04     Wisconsin REE ex  11 wl:DLSC  11 gf:DLSC  11 DLSC  11 DLSC  11 DLSC  11 DLSC  11 DLSC  11 DLSC  11 DLSC    Gd+,4f7.(8S).5d.(7D).6s 8D*,4f7.(8S).5d.(9D).6p 8D,1.096478196143185,1.0,2.0
TiO 1,4834.2704,0.578,1.6169783464078802,139.0,4.177107582575955,138.0,99.0,99.0,99.0,7.193,0.0,0.0,0.001,_          -7.26520           6 wl:PPN2012   6 gf:PPN2012   6 PPN2012   6 PPN2012   6 PPN2012   6 PPN2012   6 PPN2012   6 PPN2012   6 PPN2012    (48)TiO,"8s2.9s1.3p4.1d1 X,3,2,0,139,3","8s2.11s1.3p4.1d1 C,3,2,0,138,7",0.5,1.0,1.0
MgH 1,4834.2774,-1.089,0.5149355083798439,21.5,3.0789083786536904,20.5,99.0,99.0,99.0,7.39,0.0,0.0,0.043,_                            18 wl:KMGH  18 gf:KMGH  18 KMGH  18 KMGH  18 KMGH  18 KMGH  18 KMGH  18 KMGH  18 KMGH    (24)MgH,"4s2.5s1 X,2,0,f,22,1","4s2.2p1 A,2,1,f,21,2",0.5,1.0,1.0
TiO 1,4834.2861,0.124,1.2612252812705504,100.0,3.8251935641290906,100.0,99.0,99.0,99.0,7.441,0.0,0.0,0.001,_                             6 wl:PPN2012   6 gf:PPN2012   6 PPN2012   6 PPN2012   6 PPN2012   6 PPN2012   6 PPN2012   6 PPN2012   6 PPN2012    (48)TiO,"8s2.9s1.3p4.1d1 X,3,2,-,100,5","8s2.3p4.4p1.1d1 B,3,1,+,100,8",0.5,1.0,1.0
TiO 1,4834.2863,0.45899999999999996,0.5071508877764476,85.0,3.071187758693028,86.0,99.0,99.0,99.0,7.2829999999999995,0.0,0.0,0.053,_          0.129405           6 wl:PPN2012   6 gf:PPN2012   6 PPN2012   6 PPN2012   6 PPN2012   6 PPN2012   6 PPN2012   6 PPN2012   6 PPN2012    (48)TiO,"8s2.9s1.3p4.1d1 X,3,2,0,86,0","8s2.11s1.3p4.1d1 C,3,2,0,87,2",0.5,1.0,1.0
H 1,4861.323,-0.02,10.198829118035931,1.5,12.748537854359235,2.5,99.0,99.0,99.0,8.788,2.0,4.0,0.122,_          H 1 Kurucz NLTE   76 wl:CDROM18  76 gf:CDROM18  76 CDROM18  76 CDROM18  76 CDROM18  76 CDROM18  76 CDROM18  76 CDROM18  76 CDROM18    H,n=2 n=2,n=4 n=4,0.5,1.0,1.0
TiO 1,4874.7711,-0.585,0.582912696279383,84.0,3.1256011993735324,85.0,99.0,99.0,99.0,7.2829999999999995,0.0,0.0,0.004,_          0.0261448          8 wl:PPN2012   8 gf:PPN2012   8 PPN2012   8 PPN2012   8 PPN2012   8 PPN2012   8 PPN2012   8 PPN2012   8 PPN2012    (49)TiO,"8s2.9s1.3p4.1d1 X,3,2,0,83,1","8s2.11s1.3p4.1d1 C,3,2,0,84,3",0.5,1.0,1.0
CH 1,4874.774,-2.924,0.4578542997223746,7.5,3.0005275527602353,7.5,99.0,99.0,99.0,6.27,0.0,0.0,0.01,_                            37 wl:JLIY  37 gf:JLIY  37 JLIY  37 JLIY  37 JLIY  37 JLIY  37 JLIY  37 JLIY  37 JLIY    (12)CH,"1s2.2s2.3s2.1p1 X,2,1,e,8,1","1s2.2s2.3s1.1p2 A,2,2,f,8,0",0.5,1.0,1.0
V 2,4874.7843,-2.2030000000000003,3.752687977401153,2.0,6.295355899118523,2.0,0.67,1.11,0.89,8.29,-6.48,-7.86,0.001,_          Kurucz V II 2010  16 wl:K10  16 gf:K10  16 K10  16 K10  16 K10  16 K10  16 K10  16 K10  16 K10    V+,3d3.(2F).4s c3F,3d3.(2P).4p y3D*,0.5,1.0,2.0
TiO 1,4874.7863,0.644,1.6030948439435704,152.0,4.13373667045893,153.0,99.0,99.0,99.0,7.167999999999999,0.0,0.0,0.001,_          -23.1642           6 wl:PPN2012   6 gf:PPN2012   6 PPN2012   6 PPN2012   6 PPN2012   6 PPN2012   6 PPN2012   6 PPN2012   6 PPN2012    (48)TiO,"8s2.9s1.3p4.1d1 X,3,2,0,151,1","8s2.11s1.3p4.1d1 C,3,2,0,152,4",0.5,1.0,1.0
TiO 1,4874.7889,-0.9059999999999999,0.3510084750638023,37.0,2.8936448675997553,36.0,99.0,99.0,99.0,7.318,0.0,0.0,0.004,_          -0.0559575         2 wl:PPN2012   2 gf:PPN2012   2 PPN2012   2 PPN2012   2 PPN2012   2 PPN2012   2 PPN2012   2 PPN2012   2 PPN2012    (47)TiO,"8s2.9s1.3p4.1d1 X,3,2,0,37,2","8s2.11s1.3p4.1d1 C,3,2,0,36,4",0.5,1.0,1.0
Ce 2,4874.7905,-2.78,0.6741544029764142,3.5,3.2168191011046496,3.5,1.0,0.94,0.97,0.0,0.0,0.0,0.017,C 0.002    Ce 2: DREAM data  15 wl:PQWB  15 gf:PQWB  15 PQWB  15 PQWB  15 PQWB  15 PQWB  15 PQWB  15 PQWB  15 PQWB    Ce+,4f.(2F*).5d2.(3F) 4G*,4f.5d.(1G*).6p 4f.5d.(1G*).6p,0.002,1.0,2.0
Ni 1,4874.7929,-1.44,3.543222627016851,3.0,6.0858860853031125,4.0,0.95,1.33,1.91,8.1,-5.46,-7.58,0.593,_          Wisconsin Sc-Mn_  24 wl:WLSCow  24 gf:WLSCow  24 WLSCow  24 WLSCow  33 K08  33 K08  33 K08  33 K08  34 WLa    Ni,3d8.4s.(a4F).4p z5G*,3d8.4s.(a4F).5s e5F,0.5,1.0,1.0