species,wlcent,gflog,excit,j_lo,e_upp,j_up,lande_lower,lande_upper,lande,gamrad,gamqst,gamvw,depth,reference,term_lower,term_upper,error,atom_number,ionization
Fe 1,4891.4919,-0.11199999999999999,2.851224170372141,4.0,5.3852073710093205,3.0,1.49,1.76,1.1,8.18,-5.41,-7.263999999999999,0.9690000000000001,E 0.021    Kurucz Fe I 2014   5 wl:K14  35 gf:BWL   5 K14   5 K14   5 K14   5 K14   5 K14  25 BPM   5 K14    Fe,3d6.(5D).4s.4p.(3P*) z7F*,3d6.(5D).4s\ (6D).5s e7D,1.0495424286523223,1.0,1.0
TiO 1,4891.4934,-0.5820000000000001,0.8186181118099412,110.0,3.3527559951318846,111.0,99.0,99.0,99.0,7.25,0.0,0.0,0.001,_          0.299934           4 wl:PPN2012   4 gf:PPN2012   4 PPN2012   4 PPN2012   4 PPN2012   4 PPN2012   4 PPN2012   4 PPN2012   4 PPN2012    (50)TiO,"8s2.9s1.3p4.1d1 X,3,2,0,111,0","8s2.11s1.3p4.1d1 C,3,2,0,112,2",0.5,1.0,1.0
Cr 2,4891.4948,-3.705,3.887012952877078,2.5,6.420994665703889,3.5,1.12,1.25,1.4,8.37,-6.56,-7.774,0.006999999999999999,_          Kurucz CrII 2016  42 wl:K16  43 gf:RU  42 K16  42 K16  42 K16  42 K16  42 K16  25 BA-J  42 K16    Cr+,3d5 a2D,3d4.(5D).4p z4F*,0.5,1.0,2.0
TiO 1,4891.5072,-0.95,0.40210093702297084,49.0,2.9360978007187115,48.0,99.0,99.0,99.0,7.312,0.0,0.0,0.003,_          0.0415617          4 wl:PPN2012   4 gf:PPN2012   4 PPN2012   4 PPN2012   4 PPN2012   4 PPN2012   4 PPN2012   4 PPN2012   4 PPN2012    (50)TiO,"8s2.9s1.3p4.1d1 X,3,2,0,48,2","8s2.11s1.3p4.1d1 C,3,2,0,47,4",0.5,1.0,1.0
TiO 1,4891.5093,-0.654,0.7397560908476849,45.0,3.2737303274273875,45.0,99.0,99.0,99.0,7.382999999999999,0.0,0.0,0.001,_                             6 wl:PPN2012   6 gf:PPN2012   6 PPN2012   6 PPN2012   6 PPN2012   6 PPN2012   6 PPN2012   6 PPN2012   6 PPN2012    (48)TiO,"8s2.9s1.3p4.1d1 X,3,2,+,44,5","8s2.3p4.4p1.1d1 B,3,1,-,44,9",0.5,1.0,1.0
TiO 1,4891.5124,0.052000000000000005,1.1843477141777419,103.0,3.7183203017676183,103.0,99.0,99.0,99.0,7.356,0.0,0.0,0.002,_                             6 wl:PPN2012   6 gf:PPN2012   6 PPN2012   6 PPN2012   6 PPN2012   6 PPN2012   6 PPN2012   6 PPN2012   6 PPN2012    (48)TiO,"8s2.9s1.3p4.1d1 X,3,2,-,103,4","8s2.3p4.4p1.1d1 B,3,1,+,103,7",0.5,1.0,1.0
TiO 1,4891.5186,-0.644,0.5014586988800755,73.0,3.035464935781145,72.0,99.0,99.0,99.0,7.296,0.0,0.0,0.004,_          0.0709946          8 wl:PPN2012   8 gf:PPN2012   8 PPN2012   8 PPN2012   8 PPN2012   8 PPN2012   8 PPN2012   8 PPN2012   8 PPN2012    (49)TiO,"8s2.9s1.3p4.1d1 X,3,2,0,74,1","8s2.11s1.3p4.1d1 C,3,2,0,73,3",0.5,1.0,1.0
TiO 1,4891.5374,0.498,0.5796684265810217,94.0,3.1136063481892853,93.0,99.0,99.0,99.0,7.275,0.0,0.0,0.044000000000000004,_          -0.0419062         6 wl:PPN2012   6 gf:PPN2012   6 PPN2012   6 PPN2012   6 PPN2012   6 PPN2012   6 PPN2012   6 PPN2012   6 PPN2012    (48)TiO,"8s2.9s1.3p4.1d1 X,3,2,0,93,0","8s2.11s1.3p4.1d1 C,3,2,0,92,2",0.5,1.0,1.0
Ti 1,4891.5409,-1.956,3.4094392145154746,3.0,5.943396998392173,3.0,0.75,0.84,0.8,8.4,-4.13,-7.29,0.015,_          Kurucz TiI 2016   22 wl:K16  22 gf:K16  22 K16  22 K16  22 K16  22 K16  22 K16  22 K16  22 K16    Ti,3d2.(3F).4s.4p.(1P*) y3G*,3d2.4s.(4F).5d h5G,0.5,1.0,1.0
Mn 1,4891.5453,-0.845,5.087255118811577,4.5,7.6212106709727205,5.5,1.12,1.16,1.27,7.88,-6.15,-7.77,0.031,_      A   Kurucz MnI 2007   39 wl:K07  39 gf:K07  39 K07  39 K07  39 K07  39 K07  39 K07  39 K07  39 K07    Mn,3d6.(3G).4s a2G,3d6.(3G).4p 4G*,0.5,1.0,1.0
TiO 1,4891.5577,-0.7859999999999999,0.4128142131516485,50.0,2.9467838747144643,49.0,99.0,99.0,99.0,7.311,0.0,0.0,0.004,_          0.0395594          2 wl:PPN2012   2 gf:PPN2012   2 PPN2012   2 PPN2012   2 PPN2012   2 PPN2012   2 PPN2012   2 PPN2012   2 PPN2012    (47)TiO,"8s2.9s1.3p4.1d1 X,3,2,0,49,2","8s2.11s1.3p4.1d1 C,3,2,0,48,4",0.5,1.0,1.0
C2 1,4891.5624,0.413,1.3781063000834166,80.0,3.9120418907887675,81.0,99.0,99.0,99.0,6.77,0.0,0.0,0.003,_                             9 wl:BBSB   9 gf:BBSB   9 BBSB   9 BBSB   9 BBSB   9 BBSB   9 BBSB   9 BBSB   9 BBSB    (12)C(12)C,"2sg2.2su2.3sg1.1pu3 a,3,1,f,81,0,g","2sg2.2su1.3sg1.1pu3/2sg2.2su2.3sg1.1pg1.1pu2 d,3,1,f,82,0,g",0.5,1.0,1.0
TiO 1,4891.5677,-0.155,1.1137595802589386,89.0,3.64770349030394,90.0,99.0,99.0,99.0,7.263,0.0,0.0,0.001,_                             6 wl:PPN2012   6 gf:PPN2012   6 PPN2012   6 PPN2012   6 PPN2012   6 PPN2012   6 PPN2012   6 PPN2012   6 PPN2012    (48)TiO,"8s2.9s1.3p4.1d1 X,3,2,0,88,5","8s2.11s1.3p4.1d1 C,3,2,0,89,8",0.5,1.0,1.0
TiO 1,4891.5679,0.593,1.318292851666298,135.0,3.8516707614514285,134.0,99.0,99.0,99.0,7.207000000000001,0.0,0.0,0.003,_          -1.09279           6 wl:PPN2012   6 gf:PPN2012   6 PPN2012   6 PPN2012   6 PPN2012   6 PPN2012   6 PPN2012   6 PPN2012   6 PPN2012    (48)TiO,"8s2.9s1.3p4.1d1 X,3,2,0,135,1","8s2.11s1.3p4.1d1 C,3,2,0,134,4",0.5,1.0,1.0
TiO 1,4891.5752,-0.495,0.4951635500345668,75.0,3.0291617031659612,74.0,99.0,99.0,99.0,7.294,0.0,0.0,0.006,_          0.111965           2 wl:PPN2012   2 gf:PPN2012   2 PPN2012   2 PPN2012   2 PPN2012   2 PPN2012   2 PPN2012   2 PPN2012   2 PPN2012    (47)TiO,"8s2.9s1.3p4.1d1 X,3,2,0,74,1","8s2.11s1.3p4.1d1 C,3,2,0,73,3",0.5,1.0,1.0
V 1,4891.5836,-0.179,2.616266181177612,3.5,5.15020189586716,4.5,0.89,1.04,1.3,8.16,-5.88,-7.69,0.556,_          Kurucz V I 2009   19 wl:K09  19 gf:K09  19 K09  19 K09  19 K09  19 K09  19 K09  19 K09  19 K09    V,3d4.(3G).4s 2G,3d4.(a3F).4p t2G*,0.5,1.0,1.0
TiO 1,4891.5867,-0.657,0.49397431840927286,74.0,3.0279881927369066,73.0,99.0,99.0,99.0,7.295,0.0,0.0,0.004,_          0.153902           4 wl:PPN2012   4 gf:PPN2012   4 PPN2012   4 PPN2012   4 PPN2012   4 PPN2012   4 PPN2012   4 PPN2012   4 PPN2012    (50)TiO,"8s2.9s1.3p4.1d1 X,3,2,0,74,1","8s2.11s1.3p4.1d1 C,3,2,0,73,3",0.5,1.0,1.0
TiO 1,4891.5895,0.488,1.4984709028926009,132.0,4.016074303233607,133.0,99.0,99.0,99.0,7.205,0.0,0.0,0.001,_          -31.7273           6 wl:PPN2012   6 gf:PPN2012   6 PPN2012   6 PPN2012   6 PPN2012   6 PPN2012   6 PPN2012   6 PPN2012   6 PPN2012    (48)TiO,"8s2.9s1.3p4.1d1 X,3,2,0,132,3","8s2.11s1.3p4.1d1 C,3,2,0,133,6",0.5,1.0,1.0
TiO 1,4891.5971,0.578,0.6974665689009941,91.0,3.2314171244989796,92.0,99.0,99.0,99.0,7.274,0.0,0.0,0.034,_          0.0420902          6 wl:PPN2012   6 gf:PPN2012   6 PPN2012   6 PPN2012   6 PPN2012   6 PPN2012   6 PPN2012   6 PPN2012   6 PPN2012    (48)TiO,"8s2.9s1.3p4.1d1 X,3,2,0,92,1","8s2.11s1.3p4.1d1 C,3,2,0,93,3",0.5,1.0,1.0
Cr 1,4891.6027,-1.91,3.1215940301112983,4.0,5.655519826065049,4.0,1.19,0.89,1.04,8.1,-6.01,-7.76,0.512,_          Kurucz Cr I 2016  10 wl:K16  10 gf:K16  10 K16  10 K16  10 K16  10 K16  10 K16  10 K16  10 K16    Cr,3d4.4s2 a3F,3d5.(4G).4p y5H*,0.5,1.0,1.0
TiO 1,4891.6081,-0.625,0.783777101705725,48.0,3.317700207202391,48.0,99.0,99.0,99.0,7.388,0.0,0.0,0.002,_                             6 wl:PPN2012   6 gf:PPN2012   6 PPN2012   6 PPN2012   6 PPN2012   6 PPN2012   6 PPN2012   6 PPN2012   6 PPN2012    (48)TiO,"8s2.9s1.3p4.1d1 X,3,2,-,49,5","8s2.3p4.4p1.1d1 B,3,1,+,49,9",0.5,1.0,1.0
TiO 1,4891.624,0.628,1.4854829382866177,138.0,4.017465653897617,139.0,99.0,99.0,99.0,7.195,0.0,0.0,0.002,_          -3.73255           6 wl:PPN2012   6 gf:PPN2012   6 PPN2012   6 PPN2012   6 PPN2012   6 PPN2012   6 PPN2012   6 PPN2012   6 PPN2012    (48)TiO,"8s2.9s1.3p4.1d1 X,3,2,0,138,2","8s2.11s1.3p4.1d1 C,3,2,0,139,5",0.5,1.0,1.0
TiO 1,4891.637,-0.42100000000000004,0.826854518430499,111.0,3.3607721934193155,112.0,99.0,99.0,99.0,7.249,0.0,0.0,0.002,_          0.0186316          2 wl:PPN2012   2 gf:PPN2012   2 PPN2012   2 PPN2012   2 PPN2012   2 PPN2012   2 PPN2012   2 PPN2012   2 PPN2012    (47)TiO,"8s2.9s1.3p4.1d1 X,3,2,0,111,0","8s2.11s1.3p4.1d1 C,3,2,0,112,2",0.5,1.0,1.0
TiO 1,4891.6454,0.223,1.0480903086016269,92.0,3.5819939733761292,91.0,99.0,99.0,99.0,7.265,0.0,0.0,0.004,_                             6 wl:PPN2012   6 gf:PPN2012   6 PPN2012   6 PPN2012   6 PPN2012   6 PPN2012   6 PPN2012   6 PPN2012   6 PPN2012    (48)TiO,"8s2.9s1.3p4.1d1 X,3,2,0,92,4","8s2.11s1.3p4.1d1 C,3,2,0,91,7",0.5,1.0,1.0
Ti 1,4891.653,-0.982,3.1608200265226998,2.0,5.694719785794982,3.0,1.47,1.64,1.81,8.0,-5.27,-7.53,0.258,_          Kurucz TiI 2016   22 wl:K16  22 gf:K16  22 K16  22 K16  22 K16  22 K16  22 K16  22 K16  22 K16    Ti,3d2.(1D).4s.4p.(3P*) z3P*,3d2.4s.(45).5s 5P,0.5,1.0,1.0
TiO 1,4891.6849,-0.841,0.5477700450211418,65.0,3.0816671510315983,66.0,99.0,99.0,99.0,7.2989999999999995,0.0,0.0,0.002,_          0.0267320          4 wl:PPN2012   4 gf:PPN2012   4 PPN2012   4 PPN2012   4 PPN2012   4 PPN2012   4 PPN2012   4 PPN2012   4 PPN2012    (50)TiO,"8s2.9s1.3p4.1d1 X,3,2,0,66,2","8s2.11s1.3p4.1d1 C,3,2,0,67,4",0.5,1.0,1.0
TiO 1,4891.6851,-0.2,1.1234199701842804,87.0,3.657303090777262,88.0,99.0,99.0,99.0,7.405,0.0,0.0,0.001,_                             6 wl:PPN2012   6 gf:PPN2012   6 PPN2012   6 PPN2012   6 PPN2012   6 PPN2012   6 PPN2012   6 PPN2012   6 PPN2012    (48)TiO,"8s2.9s1.3p4.1d1 X,3,2,-,88,5","8s2.3p4.4p1.1d1 B,3,1,+,89,8",0.5,1.0,1.0
TiO 1,4891.6919,0.322,0.5546208662428722,67.0,3.088565135842046,68.0,99.0,99.0,99.0,7.297000000000001,0.0,0.0,0.032,_          0.124918           6 wl:PPN2012   6 gf:PPN2012   6 PPN2012   6 PPN2012   6 PPN2012   6 PPN2012   6 PPN2012   6 PPN2012   6 PPN2012    (48)TiO,"8s2.9s1.3p4.1d1 X,3,2,0,67,2","8s2.11s1.3p4.1d1 C,3,2,0,68,4",0.5,1.0,1.0
TiO 1,4891.7022,-0.9329999999999999,0.41647717748486646,49.0,2.9503634224796245,48.0,99.0,99.0,99.0,7.312,0.0,0.0,0.003,_          0.0232331          8 wl:PPN2012   8 gf:PPN2012   8 PPN2012   8 PPN2012   8 PPN2012   8 PPN2012   8 PPN2012   8 PPN2012   8 PPN2012    (49)TiO,"8s2.9s1.3p4.1d1 X,3,2,0,49,2","8s2.11s1.3p4.1d1 C,3,2,0,48,4",0.5,1.0,1.0
TiO 1,4891.7278,0.142,1.1813592858708601,73.0,3.7152203248782727,73.0,99.0,99.0,99.0,7.5329999999999995,0.0,0.0,0.002,_                             6 wl:PPN2012   6 gf:PPN2012   6 PPN2012   6 PPN2012   6 PPN2012   6 PPN2012   6 PPN2012   6 PPN2012   6 PPN2012    (48)TiO,"8s2.9s1.3p4.1d1 X,3,2,-,72,7","8s2.3p4.4p1.1d1 B,3,1,+,72,10",0.5,1.0,1.0
TiO 1,4891.7535,-0.968,0.41581554821348693,47.0,2.9496713426893466,46.0,99.0,99.0,99.0,7.313,0.0,0.0,0.003,_          0.0156698          4 wl:PPN2012   4 gf:PPN2012   4 PPN2012   4 PPN2012   4 PPN2012   4 PPN2012   4 PPN2012   4 PPN2012   4 PPN2012    (50)TiO,"8s2.9s1.3p4.1d1 X,3,2,0,48,2","8s2.11s1.3p4.1d1 C,3,2,0,47,4",0.5,1.0,1.0
TiO 1,4891.7627,-0.68,0.5625924302192139,66.0,3.0964481751013944,67.0,99.0,99.0,99.0,7.297999999999999,0.0,0.0,0.003,_          0.0247361          2 wl:PPN2012   2 gf:PPN2012   2 PPN2012   2 PPN2012   2 PPN2012   2 PPN2012   2 PPN2012   2 PPN2012   2 PPN2012    (47)TiO,"8s2.9s1.3p4.1d1 X,3,2,0,67,2","8s2.11s1.3p4.1d1 C,3,2,0,68,4",0.5,1.0,1.0
TiO 1,4891.7646,-0.8029999999999999,0.42628675759502394,48.0,2.960137468718787,47.0,99.0,99.0,99.0,7.312,0.0,0.0,0.004,_          0.0168254          2 wl:PPN2012   2 gf:PPN2012   2 PPN2012   2 PPN2012   2 PPN2012   2 PPN2012   2 PPN2012   2 PPN2012   2 PPN2012    (47)TiO,"8s2.9s1.3p4.1d1 X,3,2,0,49,2","8s2.11s1.3p4.1d1 C,3,2,0,48,4",0.5,1.0,1.0
TiO 1,4891.7705,-0.742,0.42751896214316104,50.0,2.9613732192149715,49.0,99.0,99.0,99.0,7.311,0.0,0.0,0.004,_          0.0295734          3 wl:PPN2012   3 gf:PPN2012   3 PPN2012   3 PPN2012   3 PPN2012   3 PPN2012   3 PPN2012   3 PPN2012   3 PPN2012    (46)TiO,"8s2.9s1.3p4.1d1 X,3,2,0,50,2","8s2.11s1.3p4.1d1 C,3,2,0,49,4",0.5,1.0,1.0
TiO 1,4891.7709,-0.648,0.8258794447094951,64.0,3.3597180797724246,63.0,99.0,99.0,99.0,7.388,0.0,0.0,0.001,_                             2 wl:PPN2012   2 gf:PPN2012   2 PPN2012   2 PPN2012   2 PPN2012   2 PPN2012   2 PPN2012   2 PPN2012   2 PPN2012    (47)TiO,"8s2.9s1.3p4.1d1 a,1,2,0,64,1","8s2.11s1.3p4.1d1 f,1,2,0,63,3",0.5,1.0,1.0
TiO 1,4891.7725,-0.636,0.5767588770205705,94.0,3.1105750585453382,93.0,99.0,99.0,99.0,7.275,0.0,0.0,0.003,_          -0.0419062         8 wl:PPN2012   8 gf:PPN2012   8 PPN2012   8 PPN2012   8 PPN2012   8 PPN2012   8 PPN2012   8 PPN2012   8 PPN2012    (49)TiO,"8s2.9s1.3p4.1d1 X,3,2,0,93,0","8s2.11s1.3p4.1d1 C,3,2,0,92,2",0.5,1.0,1.0
TiO 1,4891.8035,0.5820000000000001,0.6928475128274051,92.0,3.226721842940786,93.0,99.0,99.0,99.0,7.273,0.0,0.0,0.035,_          0.101406           6 wl:PPN2012   6 gf:PPN2012   6 PPN2012   6 PPN2012   6 PPN2012   6 PPN2012   6 PPN2012   6 PPN2012   6 PPN2012    (48)TiO,"8s2.9s1.3p4.1d1 X,3,2,0,92,1","8s2.11s1.3p4.1d1 C,3,2,0,93,3",0.5,1.0,1.0
TiO 1,4891.8162,0.18100000000000002,0.8971039771154927,84.0,3.4309192287587793,83.0,99.0,99.0,99.0,7.382999999999999,0.0,0.0,0.006,_                             6 wl:PPN2012   6 gf:PPN2012   6 PPN2012   6 PPN2012   6 PPN2012   6 PPN2012   6 PPN2012   6 PPN2012   6 PPN2012    (48)TiO,"8s2.9s1.3p4.1d1 a,1,2,0,84,0","8s2.11s1.3p4.1d1 f,1,2,0,83,2",0.5,1.0,1.0
TiO 1,4891.8314,0.575,0.8226174080756363,111.0,3.356434482286626,112.0,99.0,99.0,99.0,7.249,0.0,0.0,0.021,_          0.0186316          6 wl:PPN2012   6 gf:PPN2012   6 PPN2012   6 PPN2012   6 PPN2012   6 PPN2012   6 PPN2012   6 PPN2012   6 PPN2012    (48)TiO,"8s2.9s1.3p4.1d1 X,3,2,0,111,0","8s2.11s1.3p4.1d1 C,3,2,0,112,2",0.5,1.0,1.0
TiO 1,4891.8609,-0.662,0.49942124176620944,73.0,3.0332500820775388,72.0,99.0,99.0,99.0,7.296,0.0,0.0,0.004,_          0.0709946          4 wl:PPN2012   4 gf:PPN2012   4 PPN2012   4 PPN2012   4 PPN2012   4 PPN2012   4 PPN2012   4 PPN2012   4 PPN2012    (50)TiO,"8s2.9s1.3p4.1d1 X,3,2,0,74,1","8s2.11s1.3p4.1d1 C,3,2,0,73,3",0.5,1.0,1.0
Ti 1,4891.8634,-2.65,2.174706132655156,3.0,4.708496909817862,2.0,1.34,1.14,1.54,8.54,-5.59,-7.62,0.191,_          Kurucz TiI 2016   22 wl:K16  22 gf:K16  22 K16  22 K16  22 K16  22 K16  22 K16  22 K16  22 K16    Ti,3d3.(2D2).4s a3D,3d2.(3P).4s.4p.(1P*) u3D*,0.5,1.0,1.0
Ce 2,4891.8734,-1.08,1.5331645329812844,4.5,4.066950102807697,5.5,0.92,0.95,1.01,0.0,0.0,0.0,0.040999999999999995,C-0.085    Ce 2: DREAM data  15 wl:PQWB  15 gf:PQWB  15 PQWB  15 PQWB  15 PQWB  15 PQWB  15 PQWB  15 PQWB  15 PQWB    Ce+,4f.(2F*).5d2.(3F) 2H*,4f.5d.(3H*).6p 2I,0.085,1.0,2.0
Ce 1,4891.877,-0.5670000000000001,0.4929740634977628,6.0,3.0267577735612132,5.0,1.16,1.07,1.39,0.0,0.0,0.0,0.032,_          La1 to Lu 2 Bell   1 wl:CB   1 gf:CB   1 CB   1 CB   1 CB   1 CB   1 CB   1 CB   1 CB    Ce,4f.5d.6s2 3H*, ,0.5,1.0,1.0
TiO 1,4891.881,-0.365,0.6949379607872699,93.0,3.228679429434642,94.0,99.0,99.0,99.0,7.272,0.0,0.0,0.004,_          -0.0774813         3 wl:PPN2012   3 gf:PPN2012   3 PPN2012   3 PPN2012   3 PPN2012   3 PPN2012   3 PPN2012   3 PPN2012   3 PPN2012    (46)TiO,"8s2.9s1.3p4.1d1 X,3,2,0,92,1","8s2.11s1.3p4.1d1 C,3,2,0,93,3",0.5,1.0,1.0
Ce 2,4891.882,-2.07,1.33885017551203,2.5,3.872631281907333,2.5,0.97,0.98,0.97,0.0,0.0,0.0,0.008,C 0.009    Ce 2: DREAM data  15 wl:PQWB  15 gf:PQWB  15 PQWB  15 PQWB  15 PQWB  15 PQWB  15 PQWB  15 PQWB  15 PQWB    Ce+,4f.(2F*).5d2.(3P) *,4f.5d.(1D*).6p 4f.5d.(1D*).6p,0.009,1.0,2.0
TiO 1,4891.8852,0.327,0.5490189750375176,68.0,3.0826513375911158,69.0,99.0,99.0,99.0,7.297000000000001,0.0,0.0,0.033,_          -0.284248          6 wl:PPN2012   6 gf:PPN2012   6 PPN2012   6 PPN2012   6 PPN2012   6 PPN2012   6 PPN2012   6 PPN2012   6 PPN2012    (48)TiO,"8s2.9s1.3p4.1d1 X,3,2,0,67,2","8s2.11s1.3p4.1d1 C,3,2,0,68,4",0.5,1.0,1.0
TiO 1,4891.8951,-0.625,0.783777101705725,48.0,3.317551426165427,48.0,99.0,99.0,99.0,7.388,0.0,0.0,0.001,_                             6 wl:PPN2012   6 gf:PPN2012   6 PPN2012   6 PPN2012   6 PPN2012   6 PPN2012   6 PPN2012   6 PPN2012   6 PPN2012    (48)TiO,"8s2.9s1.3p4.1d1 X,3,2,+,49,5","8s2.3p4.4p1.1d1 B,3,1,-,49,9",0.5,1.0,1.0
TiO 1,4891.9113,0.057,1.1525931294900877,91.0,3.6863590354227815,91.0,99.0,99.0,99.0,7.412999999999999,0.0,0.0,0.002,_                             6 wl:PPN2012   6 gf:PPN2012   6 PPN2012   6 PPN2012   6 PPN2012   6 PPN2012   6 PPN2012   6 PPN2012   6 PPN2012    (48)TiO,"8s2.9s1.3p4.1d1 X,3,2,-,91,5","8s2.3p4.4p1.1d1 B,3,1,+,91,8",0.5,1.0,1.0