species,wlcent,gflog,excit,j_lo,e_upp,j_up,lande_lower,lande_upper,lande,gamrad,gamqst,gamvw,depth,reference,term_lower,term_upper,error,atom_number,ionization
Fe 1,4832.7273,-1.733,3.6397723451759734,2.0,6.20456760263164,1.0,1.16,1.39,1.04,7.92,-6.08,-7.8,0.78,E 0.057    Kurucz Fe I 2014   5 wl:K14  35 gf:BWL   5 K14   5 K14   5 K14   5 K14   5 K14   5 K14   5 K14    Fe,3d6.4s2 b3D,3d7.(2P).4p w3P*,1.1402497875611688,1.0,1.0
Cr 1,4832.7439,-2.128,3.890359038398402,4.0,6.4551454929760474,4.0,1.35,1.5,1.42,7.02,-6.37,-7.73,0.048,_          Kurucz Cr I 2016  10 wl:K16  10 gf:K16  10 K16  10 K16  10 K16  10 K16  10 K16  10 K16  10 K16    Cr,3d5.(4F).4s a5F,3d4.(3D).4s.4p.(3P*) t5D*,0.5,1.0,1.0
TiO 1,4832.7513,0.20600000000000002,1.295173642348241,46.0,3.859956129431567,45.0,99.0,99.0,99.0,7.356,0.0,0.0,0.001,_                             6 wl:PPN2012   6 gf:PPN2012   6 PPN2012   6 PPN2012   6 PPN2012   6 PPN2012   6 PPN2012   6 PPN2012   6 PPN2012    (48)TiO,"8s2.9s1.3p4.1d1 a,1,2,0,46,6","8s2.11s1.3p4.1d1 f,1,2,0,45,9",0.5,1.0,1.0
TiO 1,4832.7521,-0.6409999999999999,0.3072828069625558,68.0,2.87206194647255,67.0,99.0,99.0,99.0,7.3020000000000005,0.0,0.0,0.009000000000000001,_          -0.00582391        2 wl:PPN2012   2 gf:PPN2012   2 PPN2012   2 PPN2012   2 PPN2012   2 PPN2012   2 PPN2012   2 PPN2012   2 PPN2012    (47)TiO,"8s2.9s1.3p4.1d1 X,3,2,0,67,0","8s2.11s1.3p4.1d1 C,3,2,0,66,2",0.5,1.0,1.0
TiO 1,4832.7803,0.158,0.7877596353079223,68.0,3.3525267483507624,67.0,99.0,99.0,99.0,7.287999999999999,0.0,0.0,0.009000000000000001,_                             6 wl:PPN2012   6 gf:PPN2012   6 PPN2012   6 PPN2012   6 PPN2012   6 PPN2012   6 PPN2012   6 PPN2012   6 PPN2012    (48)TiO,"8s2.9s1.3p4.1d1 X,3,2,0,67,4","8s2.11s1.3p4.1d1 C,3,2,0,66,7",0.5,1.0,1.0
TiO 1,4832.7842,-0.968,0.2291588887246787,35.0,2.793966780170067,34.0,99.0,99.0,99.0,7.321000000000001,0.0,0.0,0.006,_          0.0806442          4 wl:PPN2012   4 gf:PPN2012   4 PPN2012   4 PPN2012   4 PPN2012   4 PPN2012   4 PPN2012   4 PPN2012   4 PPN2012    (50)TiO,"8s2.9s1.3p4.1d1 X,3,2,0,36,1","8s2.11s1.3p4.1d1 C,3,2,0,35,3",0.5,1.0,1.0
Mo 2,4832.8,-1.08,3.7219262581668393,3.5,6.286683204505486,4.5,1.06,1.5,2.28,0.0,0.0,0.0,0.003,_          Cu 1 - Ba 2 Bell  24 wl:SDcor  24 gf:SDcor  24 SDcor  24 SDcor  24 SDcor  24 SDcor  24 SDcor  24 SDcor  24 SDcor    Mo+,4d4.(3G).5s b4G,4d4.(5D).5p z6D*,0.5,1.0,2.0
Th 2,4832.803,-1.944,0.0,1.5,2.564755210559883,2.5,0.64,0.94,1.17,0.0,0.0,0.0,0.177,E0.045     Lund exp.          7 wl:NZL   7 gf:NZL   7 NZL   7 NZL   7 NZL   7 NZL   7 NZL   7 NZL   7 NZL    Th+,6d2.(3F).7s 4F,5f.(2F).6d2.(3F) 4F*,1.109174815262401,1.0,2.0
Ce 2,4832.815,-3.14,0.3200350776091483,4.5,2.8847838409907625,3.5,1.02,1.05,0.97,0.0,0.0,0.0,0.026000000000000002,C-0.004    Ce 2: DREAM data  15 wl:PQWB  15 gf:PQWB  15 PQWB  15 PQWB  15 PQWB  15 PQWB  15 PQWB  15 PQWB  15 PQWB    Ce+,4f.(2F*).5d2.(3F) 4H*,4f2.(3P).5d 4f2.(3P).5d,0.004,1.0,2.0
TiO 1,4832.8398,-0.596,0.7907228080337793,65.0,3.3554583546999437,65.0,99.0,99.0,99.0,7.351,0.0,0.0,0.002,_                             6 wl:PPN2012   6 gf:PPN2012   6 PPN2012   6 PPN2012   6 PPN2012   6 PPN2012   6 PPN2012   6 PPN2012   6 PPN2012    (48)TiO,"8s2.9s1.3p4.1d1 X,3,2,+,66,4","8s2.3p4.4p1.1d1 B,3,1,-,66,8",0.5,1.0,1.0
TiO 1,4832.8429,-0.615,0.7458904321890749,63.0,3.310624429052771,63.0,99.0,99.0,99.0,7.346,0.0,0.0,0.002,_                             6 wl:PPN2012   6 gf:PPN2012   6 PPN2012   6 PPN2012   6 PPN2012   6 PPN2012   6 PPN2012   6 PPN2012   6 PPN2012    (48)TiO,"8s2.9s1.3p4.1d1 X,3,2,-,62,4","8s2.3p4.4p1.1d1 B,3,1,+,62,8",0.5,1.0,1.0
TiO 1,4832.8536,-0.7070000000000001,0.23221079694066515,40.0,2.7969637261913145,39.0,99.0,99.0,99.0,7.319,0.0,0.0,0.01,_          0.0465325          3 wl:PPN2012   3 gf:PPN2012   3 PPN2012   3 PPN2012   3 PPN2012   3 PPN2012   3 PPN2012   3 PPN2012   3 PPN2012    (46)TiO,"8s2.9s1.3p4.1d1 X,3,2,0,39,1","8s2.11s1.3p4.1d1 C,3,2,0,38,3",0.5,1.0,1.0
CH 1,4832.872,-2.595,1.1076553546791141,9.5,3.6723741138849406,9.5,99.0,99.0,99.0,6.27,0.0,0.0,0.003,_                            37 wl:JLIY  37 gf:JLIY  37 JLIY  37 JLIY  37 JLIY  37 JLIY  37 JLIY  37 JLIY  37 JLIY    (12)CH,"1s2.2s2.3s2.1p1 X,2,1,e,9,3","1s2.2s2.3s1.1p2 A,2,2,f,9,2",0.5,1.0,1.0
MgH 1,4832.8722,-1.111,0.48646266141502664,20.5,3.051181048668261,19.5,99.0,99.0,99.0,7.39,0.0,0.0,0.045,_                            18 wl:KMGH  18 gf:KMGH  18 KMGH  18 KMGH  18 KMGH  18 KMGH  18 KMGH  18 KMGH  18 KMGH    (24)MgH,"4s2.5s1 X,2,0,f,21,1","4s2.2p1 A,2,1,f,20,2",0.5,1.0,1.0
TiO 1,4832.8852,0.4,0.33835999158891206,57.0,2.9031156484919056,58.0,99.0,99.0,99.0,7.308,0.0,0.0,0.086,_          0.0831816          6 wl:PPN2012   6 gf:PPN2012   6 PPN2012   6 PPN2012   6 PPN2012   6 PPN2012   6 PPN2012   6 PPN2012   6 PPN2012    (48)TiO,"8s2.9s1.3p4.1d1 X,3,2,0,56,1","8s2.11s1.3p4.1d1 C,3,2,0,57,3",0.5,1.0,1.0
TiO 1,4832.8937,0.14800000000000002,1.3246136900375225,73.0,3.8893207947287873,73.0,99.0,99.0,99.0,7.577999999999999,0.0,0.0,0.001,_                             6 wl:PPN2012   6 gf:PPN2012   6 PPN2012   6 PPN2012   6 PPN2012   6 PPN2012   6 PPN2012   6 PPN2012   6 PPN2012    (48)TiO,"8s2.9s1.3p4.1d1 X,3,2,-,74,8","8s2.3p4.4p1.1d1 B,3,1,+,74,11",0.5,1.0,1.0
MgH 1,4832.9063,-1.5530000000000002,0.14745862151393632,14.5,2.71215890707434,13.5,99.0,99.0,99.0,7.39,0.0,0.0,0.052000000000000005,_                            18 wl:KMGH  18 gf:KMGH  18 KMGH  18 KMGH  18 KMGH  18 KMGH  18 KMGH  18 KMGH  18 KMGH    (24)MgH,"4s2.5s1 X,2,0,e,14,0","4s2.2p1 A,2,1,e,13,1",0.5,1.0,1.0
Mo 1,4832.912,-1.662,2.499248903731726,4.0,5.063946337655588,4.0,1.48,1.26,1.37,0.0,0.0,0.0,0.006,_          Cu 1 - Ba 2 Bell  17 wl:WBb  17 gf:WBb  17 WBb  17 WBb  17 WBb  17 WBb  17 WBb  17 WBb  17 WBb    Mo,4d5.(4D).5s b5D,4d4.5s.(4D).5p z3F*,0.5,1.0,1.0
TiO 1,4832.9188,-0.6809999999999999,0.4935900789828932,84.0,3.058350434886971,85.0,99.0,99.0,99.0,7.284,0.0,0.0,0.004,_          0.125570           8 wl:PPN2012   8 gf:PPN2012   8 PPN2012   8 PPN2012   8 PPN2012   8 PPN2012   8 PPN2012   8 PPN2012   8 PPN2012    (49)TiO,"8s2.9s1.3p4.1d1 X,3,2,0,85,0","8s2.11s1.3p4.1d1 C,3,2,0,86,2",0.5,1.0,1.0
TiO 1,4832.9205,0.593,1.3216383172666344,134.0,3.8857049195937683,135.0,99.0,99.0,99.0,7.205,0.0,0.0,0.003,_          -1.18040           6 wl:PPN2012   6 gf:PPN2012   6 PPN2012   6 PPN2012   6 PPN2012   6 PPN2012   6 PPN2012   6 PPN2012   6 PPN2012    (48)TiO,"8s2.9s1.3p4.1d1 X,3,2,0,135,1","8s2.11s1.3p4.1d1 C,3,2,0,136,4",0.5,1.0,1.0
TiO 1,4832.924,0.121,1.321829872851726,97.0,3.886520859597319,96.0,99.0,99.0,99.0,7.246,0.0,0.0,0.001,_                             6 wl:PPN2012   6 gf:PPN2012   6 PPN2012   6 PPN2012   6 PPN2012   6 PPN2012   6 PPN2012   6 PPN2012   6 PPN2012    (48)TiO,"8s2.9s1.3p4.1d1 X,3,2,0,96,6","8s2.11s1.3p4.1d1 C,3,2,0,95,10",0.5,1.0,1.0
TiO 1,4832.9246,-0.532,0.4888506466519803,86.0,3.0535233581268666,87.0,99.0,99.0,99.0,7.282,0.0,0.0,0.006,_          -0.0336505         2 wl:PPN2012   2 gf:PPN2012   2 PPN2012   2 PPN2012   2 PPN2012   2 PPN2012   2 PPN2012   2 PPN2012   2 PPN2012    (47)TiO,"8s2.9s1.3p4.1d1 X,3,2,0,85,0","8s2.11s1.3p4.1d1 C,3,2,0,86,2",0.5,1.0,1.0
TiO 1,4832.933,-0.675,0.4886899259367998,85.0,3.053395530419275,86.0,99.0,99.0,99.0,7.2829999999999995,0.0,0.0,0.004,_          0.0365811          8 wl:PPN2012   8 gf:PPN2012   8 PPN2012   8 PPN2012   8 PPN2012   8 PPN2012   8 PPN2012   8 PPN2012   8 PPN2012    (49)TiO,"8s2.9s1.3p4.1d1 X,3,2,0,85,0","8s2.11s1.3p4.1d1 C,3,2,0,86,2",0.5,1.0,1.0
TiO 1,4832.9468,-0.596,0.32348708283037075,68.0,2.888199109694275,67.0,99.0,99.0,99.0,7.3020000000000005,0.0,0.0,0.009000000000000001,_          0.0624593          3 wl:PPN2012   3 gf:PPN2012   3 PPN2012   3 PPN2012   3 PPN2012   3 PPN2012   3 PPN2012   3 PPN2012   3 PPN2012    (46)TiO,"8s2.9s1.3p4.1d1 X,3,2,0,68,0","8s2.11s1.3p4.1d1 C,3,2,0,67,2",0.5,1.0,1.0
TiO 1,4832.9584,-0.5589999999999999,0.361279747528499,56.0,2.9260015195503244,57.0,99.0,99.0,99.0,7.308,0.0,0.0,0.009000000000000001,_          0.0925864          3 wl:PPN2012   3 gf:PPN2012   3 PPN2012   3 PPN2012   3 PPN2012   3 PPN2012   3 PPN2012   3 PPN2012   3 PPN2012    (46)TiO,"8s2.9s1.3p4.1d1 X,3,2,0,57,1","8s2.11s1.3p4.1d1 C,3,2,0,58,3",0.5,1.0,1.0
TiO 1,4832.9765,0.084,0.7365062542588572,68.0,3.301169394153699,69.0,99.0,99.0,99.0,7.392,0.0,0.0,0.009000000000000001,_                             6 wl:PPN2012   6 gf:PPN2012   6 PPN2012   6 PPN2012   6 PPN2012   6 PPN2012   6 PPN2012   6 PPN2012   6 PPN2012    (48)TiO,"8s2.9s1.3p4.1d1 a,1,2,0,68,0","8s2.11s1.3p4.1d1 f,1,2,0,69,2",0.5,1.0,1.0
V 1,4832.9856,-1.7469999999999999,1.7111814677348482,1.5,4.275839743977592,2.5,1.2,1.18,1.17,7.09,-6.15,-7.78,0.732,"_          Wisconsin Sc-Mn_  24 wl:LWDFSC  24 gf:LWDFSC  24 LWDFSC  24 LWDFSC  19 K09  19 K09  19 K09  19 K09  19 K09   hfs:LGB,LGB V",3d3.4s2 a2P,3d3.(a2D).4s.4p.(3P*) 4F*,0.5,1.0,1.0
Cr 2,4832.9867,-3.3930000000000002,5.662283659973834,1.5,8.226941294970308,1.5,0.8,1.67,1.24,8.54,-6.49,-7.857,0.002,_          Kurucz CrII 2016   1 wl:K16   2 gf:RU   1 K16   1 K16   1 K16   1 K16   1 K16   3 BA-J   1 K16    Cr+,3d4.(1D).4s c2D,3d4.(a3P).4p y4P*,0.5,1.0,2.0
TiO 1,4832.9955,-0.76,0.3283316909559975,56.0,2.893027674264749,57.0,99.0,99.0,99.0,7.308,0.0,0.0,0.006,_          0.0809832          4 wl:PPN2012   4 gf:PPN2012   4 PPN2012   4 PPN2012   4 PPN2012   4 PPN2012   4 PPN2012   4 PPN2012   4 PPN2012    (50)TiO,"8s2.9s1.3p4.1d1 X,3,2,0,55,1","8s2.11s1.3p4.1d1 C,3,2,0,56,3",0.5,1.0,1.0
TiO 1,4833.0015,-0.787,0.24110388586312342,37.0,2.8057973522926662,36.0,99.0,99.0,99.0,7.32,0.0,0.0,0.008,_          0.0824251          2 wl:PPN2012   2 gf:PPN2012   2 PPN2012   2 PPN2012   2 PPN2012   2 PPN2012   2 PPN2012   2 PPN2012   2 PPN2012    (47)TiO,"8s2.9s1.3p4.1d1 X,3,2,0,38,1","8s2.11s1.3p4.1d1 C,3,2,0,37,3",0.5,1.0,1.0
V 1,4833.0024,-1.963,1.7111745695020695,1.5,4.27582388032351,2.5,1.2,1.18,1.17,7.09,-6.15,-7.78,0.732,"_          Wisconsin Sc-Mn_  24 wl:LWDFSC  24 gf:LWDFSC  24 LWDFSC  24 LWDFSC  19 K09  19 K09  19 K09  19 K09  19 K09   hfs:LGB,LGB V",3d3.4s2 a2P,3d3.(a2D).4s.4p.(3P*) 4F*,0.5,1.0,1.0
V 1,4833.0154,-2.373,1.7111814677348482,1.5,4.27582388032351,2.5,1.2,1.18,1.17,7.09,-6.15,-7.78,0.732,"_          Wisconsin Sc-Mn_  24 wl:LWDFSC  24 gf:LWDFSC  24 LWDFSC  24 LWDFSC  19 K09  19 K09  19 K09  19 K09  19 K09   hfs:LGB,LGB V",3d3.4s2 a2P,3d3.(a2D).4s.4p.(3P*) 4F*,0.5,1.0,1.0
V 1,4833.017,-2.246,1.711169050841456,1.5,4.275810660632438,2.5,1.2,1.18,1.17,7.09,-6.15,-7.78,0.732,"_          Wisconsin Sc-Mn_  24 wl:LWDFSC  24 gf:LWDFSC  24 LWDFSC  24 LWDFSC  19 K09  19 K09  19 K09  19 K09  19 K09   hfs:LGB,LGB V",3d3.4s2 a2P,3d3.(a2D).4s.4p.(3P*) 4F*,0.5,1.0,1.0
V 1,4833.0274,-2.2119999999999997,1.7111745695020695,1.5,4.275810660632438,2.5,1.2,1.18,1.17,7.09,-6.15,-7.78,0.732,"_          Wisconsin Sc-Mn_  24 wl:LWDFSC  24 gf:LWDFSC  24 LWDFSC  24 LWDFSC  19 K09  19 K09  19 K09  19 K09  19 K09   hfs:LGB,LGB V",3d3.4s2 a2P,3d3.(a2D).4s.4p.(3P*) 4F*,0.5,1.0,1.0
V 1,4833.0291,-2.685,1.7111649118769918,1.5,4.275800084904379,2.5,1.2,1.18,1.17,7.09,-6.15,-7.78,0.732,"_          Wisconsin Sc-Mn_  24 wl:LWDFSC  24 gf:LWDFSC  24 LWDFSC  24 LWDFSC  19 K09  19 K09  19 K09  19 K09  19 K09   hfs:LGB,LGB V",3d3.4s2 a2P,3d3.(a2D).4s.4p.(3P*) 4F*,0.5,1.0,1.0
TiO 1,4833.0368,0.23399999999999999,0.22521704673609122,39.0,2.7898718300960232,38.0,99.0,99.0,99.0,7.32,0.0,0.0,0.091,_          0.0447057          6 wl:PPN2012   6 gf:PPN2012   6 PPN2012   6 PPN2012   6 PPN2012   6 PPN2012   6 PPN2012   6 PPN2012   6 PPN2012    (48)TiO,"8s2.9s1.3p4.1d1 X,3,2,0,38,1","8s2.11s1.3p4.1d1 C,3,2,0,37,3",0.5,1.0,1.0
V 1,4833.0369,-2.22,1.711169050841456,1.5,4.275800084904379,2.5,1.2,1.18,1.17,7.09,-6.15,-7.78,0.732,"_          Wisconsin Sc-Mn_  24 wl:LWDFSC  24 gf:LWDFSC  24 LWDFSC  24 LWDFSC  19 K09  19 K09  19 K09  19 K09  19 K09   hfs:LGB,LGB V",3d3.4s2 a2P,3d3.(a2D).4s.4p.(3P*) 4F*,0.5,1.0,1.0
V 1,4833.0404,-3.238,1.7111814677348482,1.5,4.275810660632438,2.5,1.2,1.18,1.17,7.09,-6.15,-7.78,0.732,"_          Wisconsin Sc-Mn_  24 wl:LWDFSC  24 gf:LWDFSC  24 LWDFSC  24 LWDFSC  19 K09  19 K09  19 K09  19 K09  19 K09   hfs:LGB,LGB V",3d3.4s2 a2P,3d3.(a2D).4s.4p.(3P*) 4F*,0.5,1.0,1.0
V 1,4833.044,-2.384,1.7111649118769918,1.5,4.27579215313933,2.5,1.2,1.18,1.17,7.09,-6.15,-7.78,0.732,"_          Wisconsin Sc-Mn_  24 wl:LWDFSC  24 gf:LWDFSC  24 LWDFSC  24 LWDFSC  19 K09  19 K09  19 K09  19 K09  19 K09   hfs:LGB,LGB V",3d3.4s2 a2P,3d3.(a2D).4s.4p.(3P*) 4F*,0.5,1.0,1.0
Ce 2,4833.0456,-1.4,2.2287911391965625,2.5,4.793417530175273,1.5,1.2,1.24,1.18,0.0,0.0,0.0,0.002,C-0.281    Ce 2: DREAM data  15 wl:PQWB  15 gf:PQWB  15 PQWB  15 PQWB  15 PQWB  15 PQWB  15 PQWB  15 PQWB  15 PQWB    Ce+,4f2.(1G).5d 2D,"4f2.(1D<2>).6p.<1/2> (2,1/2)*",0.281,1.0,2.0
V 1,4833.0473,-2.81,1.7111745695020695,1.5,4.275800084904379,2.5,1.2,1.18,1.17,7.09,-6.15,-7.78,0.732,"_          Wisconsin Sc-Mn_  24 wl:LWDFSC  24 gf:LWDFSC  24 LWDFSC  24 LWDFSC  19 K09  19 K09  19 K09  19 K09  19 K09   hfs:LGB,LGB V",3d3.4s2 a2P,3d3.(a2D).4s.4p.(3P*) 4F*,0.5,1.0,1.0
V 1,4833.0518,-2.56,1.711169050841456,1.5,4.27579215313933,2.5,1.2,1.18,1.17,7.09,-6.15,-7.78,0.732,"_          Wisconsin Sc-Mn_  24 wl:LWDFSC  24 gf:LWDFSC  24 LWDFSC  24 LWDFSC  19 K09  19 K09  19 K09  19 K09  19 K09   hfs:LGB,LGB V",3d3.4s2 a2P,3d3.(a2D).4s.4p.(3P*) 4F*,0.5,1.0,1.0
V 1,4833.054,-2.384,1.7111649118769918,1.5,4.275786865337292,2.5,1.2,1.18,1.17,7.09,-6.15,-7.78,0.732,"_          Wisconsin Sc-Mn_  24 wl:LWDFSC  24 gf:LWDFSC  24 LWDFSC  24 LWDFSC  19 K09  19 K09  19 K09  19 K09  19 K09   hfs:LGB,LGB V",3d3.4s2 a2P,3d3.(a2D).4s.4p.(3P*) 4F*,0.5,1.0,1.0
TiO 1,4833.0608,-0.408,0.9901318001612787,104.0,3.554516347564405,103.0,99.0,99.0,99.0,7.255,0.0,0.0,0.001,_          -0.440484          3 wl:PPN2012   3 gf:PPN2012   3 PPN2012   3 PPN2012   3 PPN2012   3 PPN2012   3 PPN2012   3 PPN2012   3 PPN2012    (46)TiO,"8s2.9s1.3p4.1d1 X,3,2,0,105,2","8s2.11s1.3p4.1d1 C,3,2,0,104,5",0.5,1.0,1.0
TiO 1,4833.0653,-0.708,0.24474008200810757,40.0,2.809406656265219,39.0,99.0,99.0,99.0,7.319,0.0,0.0,0.01,_          0.0954654          3 wl:PPN2012   3 gf:PPN2012   3 PPN2012   3 PPN2012   3 PPN2012   3 PPN2012   3 PPN2012   3 PPN2012   3 PPN2012    (46)TiO,"8s2.9s1.3p4.1d1 X,3,2,0,40,1","8s2.11s1.3p4.1d1 C,3,2,0,39,3",0.5,1.0,1.0
TiO 1,4833.0839,0.478,1.4613908249710126,101.0,4.025996882541339,100.0,99.0,99.0,99.0,7.3420000000000005,0.0,0.0,0.002,_                             6 wl:PPN2012   6 gf:PPN2012   6 PPN2012   6 PPN2012   6 PPN2012   6 PPN2012   6 PPN2012   6 PPN2012   6 PPN2012    (48)TiO,"8s2.9s1.3p4.1d1 a,1,2,0,101,3","8s2.11s1.3p4.1d1 f,1,2,0,100,6",0.5,1.0,1.0
TiO 1,4833.0955,-0.7929999999999999,0.807900297859636,68.0,3.372500230610607,67.0,99.0,99.0,99.0,7.287999999999999,0.0,0.0,0.001,_                             3 wl:PPN2012   3 gf:PPN2012   3 PPN2012   3 PPN2012   3 PPN2012   3 PPN2012   3 PPN2012   3 PPN2012   3 PPN2012    (46)TiO,"8s2.9s1.3p4.1d1 X,3,2,0,68,4","8s2.11s1.3p4.1d1 C,3,2,0,67,7",0.5,1.0,1.0
CH 1,4833.107,-2.6239999999999997,0.7842754313906167,15.5,3.348869338509591,15.5,99.0,99.0,99.0,6.27,0.0,0.0,0.008,_                            37 wl:JLIY  37 gf:JLIY  37 JLIY  37 JLIY  37 JLIY  37 JLIY  37 JLIY  37 JLIY  37 JLIY    (12)CH,"1s2.2s2.3s2.1p1 X,2,1,e,16,1","1s2.2s2.3s1.1p2 A,2,2,f,16,0",0.5,1.0,1.0
Ce 2,4833.1245,-1.24,2.00352710244963,3.5,4.5681115867695965,2.5,1.13,1.09,1.17,0.0,0.0,0.0,0.006,C 0.020    Ce 2: DREAM data  15 wl:PQWB  15 gf:PQWB  15 PQWB  15 PQWB  15 PQWB  15 PQWB  15 PQWB  15 PQWB  15 PQWB    Ce+,4f.(2F*).5d2.(1D) *,4f.5d.(3D*).6p 4f.5d.(3D*).6p,0.02,1.0,2.0
TiO 1,4833.1424,0.499,1.503612279593292,124.0,4.068187341114251,123.0,99.0,99.0,99.0,7.216,0.0,0.0,0.001,_                             6 wl:PPN2012   6 gf:PPN2012   6 PPN2012   6 PPN2012   6 PPN2012   6 PPN2012   6 PPN2012   6 PPN2012   6 PPN2012    (48)TiO,"8s2.9s1.3p4.1d1 X,3,2,0,125,4","8s2.11s1.3p4.1d1 C,3,2,0,124,8",0.5,1.0,1.0
MgH 1,4833.1505,-1.087,0.486517586414506,21.5,3.0510883084885534,20.5,99.0,99.0,99.0,7.39,0.0,0.0,0.047,_                            18 wl:KMGH  18 gf:KMGH  18 KMGH  18 KMGH  18 KMGH  18 KMGH  18 KMGH  18 KMGH  18 KMGH    (24)MgH,"4s2.5s1 X,2,0,e,21,1","4s2.2p1 A,2,1,e,20,2",0.5,1.0,1.0
TiO 1,4833.1591,-0.545,0.3626215541071997,58.0,2.9272614469650153,59.0,99.0,99.0,99.0,7.307,0.0,0.0,0.009000000000000001,_          0.138876           3 wl:PPN2012   3 gf:PPN2012   3 PPN2012   3 PPN2012   3 PPN2012   3 PPN2012   3 PPN2012   3 PPN2012   3 PPN2012    (46)TiO,"8s2.9s1.3p4.1d1 X,3,2,0,58,1","8s2.11s1.3p4.1d1 C,3,2,0,59,3",0.5,1.0,1.0
TiO 1,4833.1606,-0.21,0.817032068760644,55.0,3.38159744711578,56.0,99.0,99.0,99.0,7.292000000000001,0.0,0.0,0.003,_                             6 wl:PPN2012   6 gf:PPN2012   6 PPN2012   6 PPN2012   6 PPN2012   6 PPN2012   6 PPN2012   6 PPN2012   6 PPN2012    (48)TiO,"8s2.9s1.3p4.1d1 X,3,2,0,55,5","8s2.11s1.3p4.1d1 C,3,2,0,56,8",0.5,1.0,1.0
TiO 1,4833.1673,0.306,1.1468100229817109,133.0,3.710952912785548,132.0,99.0,99.0,99.0,7.212999999999999,0.0,0.0,0.003,_          -0.789608          6 wl:PPN2012   6 gf:PPN2012   6 PPN2012   6 PPN2012   6 PPN2012   6 PPN2012   6 PPN2012   6 PPN2012   6 PPN2012    (48)TiO,"8s2.9s1.3p4.1d1 X,3,2,0,132,0","8s2.11s1.3p4.1d1 C,3,2,0,131,3",0.5,1.0,1.0
TiO 1,4833.1684,0.385,0.35093896952270054,55.0,2.9155492797510005,56.0,99.0,99.0,99.0,7.309,0.0,0.0,0.08,_          0.0925237          6 wl:PPN2012   6 gf:PPN2012   6 PPN2012   6 PPN2012   6 PPN2012   6 PPN2012   6 PPN2012   6 PPN2012   6 PPN2012    (48)TiO,"8s2.9s1.3p4.1d1 X,3,2,0,56,1","8s2.11s1.3p4.1d1 C,3,2,0,57,3",0.5,1.0,1.0
TiO 1,4833.1685,-0.93,0.2185926454557808,38.0,2.7831766834326364,37.0,99.0,99.0,99.0,7.32,0.0,0.0,0.006999999999999999,_          0.0430451          4 wl:PPN2012   4 gf:PPN2012   4 PPN2012   4 PPN2012   4 PPN2012   4 PPN2012   4 PPN2012   4 PPN2012   4 PPN2012    (50)TiO,"8s2.9s1.3p4.1d1 X,3,2,0,37,1","8s2.11s1.3p4.1d1 C,3,2,0,36,3",0.5,1.0,1.0
CH 1,4833.172,-2.602,0.7843573849451445,16.5,3.3489169484414196,16.5,99.0,99.0,99.0,6.27,0.0,0.0,0.009000000000000001,_                            37 wl:JLIY  37 gf:JLIY  37 JLIY  37 JLIY  37 JLIY  37 JLIY  37 JLIY  37 JLIY  37 JLIY    (12)CH,"1s2.2s2.3s2.1p1 X,2,1,f,16,1","1s2.2s2.3s1.1p2 A,2,2,e,16,0",0.5,1.0,1.0
TiO 1,4833.1798,-0.327,0.7074421762499838,39.0,3.2719974002993473,38.0,99.0,99.0,99.0,7.3020000000000005,0.0,0.0,0.004,_                             6 wl:PPN2012   6 gf:PPN2012   6 PPN2012   6 PPN2012   6 PPN2012   6 PPN2012   6 PPN2012   6 PPN2012   6 PPN2012    (48)TiO,"8s2.9s1.3p4.1d1 X,3,2,0,38,5","8s2.11s1.3p4.1d1 C,3,2,0,37,8",0.5,1.0,1.0
Fe 2,4833.1916,-4.795,2.657025490159126,5.5,5.2215743910144194,4.5,1.12,1.43,0.42,8.54,-6.53,-7.894,0.076,_          Kurucz FeII 2013  20 wl:K13  21 gf:RU  20 K13  20 K13  20 K13  20 K13  20 K13  25 BA-J  20 K13    Fe+,3d6.(3H).4s a4H,3d6.(5D).4p z6F*,0.5,1.0,2.0
TiO 1,4833.1972,-0.49200000000000005,0.512386839622969,85.0,3.0770015016965995,86.0,99.0,99.0,99.0,7.2829999999999995,0.0,0.0,0.006,_          0.129405           3 wl:PPN2012   3 gf:PPN2012   3 PPN2012   3 PPN2012   3 PPN2012   3 PPN2012   3 PPN2012   3 PPN2012   3 PPN2012    (46)TiO,"8s2.9s1.3p4.1d1 X,3,2,0,86,0","8s2.11s1.3p4.1d1 C,3,2,0,87,2",0.5,1.0,1.0
TiO 1,4833.1989,-0.7929999999999999,0.3154946151183355,66.0,2.8800797565545486,65.0,99.0,99.0,99.0,7.303,0.0,0.0,0.006,_          0.0754960          8 wl:PPN2012   8 gf:PPN2012   8 PPN2012   8 PPN2012   8 PPN2012   8 PPN2012   8 PPN2012   8 PPN2012   8 PPN2012    (49)TiO,"8s2.9s1.3p4.1d1 X,3,2,0,67,0","8s2.11s1.3p4.1d1 C,3,2,0,66,2",0.5,1.0,1.0
TiO 1,4833.2083,0.233,0.23766689512821454,39.0,2.802255991660327,38.0,99.0,99.0,99.0,7.32,0.0,0.0,0.086,_          0.0925393          6 wl:PPN2012   6 gf:PPN2012   6 PPN2012   6 PPN2012   6 PPN2012   6 PPN2012   6 PPN2012   6 PPN2012   6 PPN2012    (48)TiO,"8s2.9s1.3p4.1d1 X,3,2,0,39,1","8s2.11s1.3p4.1d1 C,3,2,0,38,3",0.5,1.0,1.0