species,wlcent,gflog,excit,j_lo,e_upp,j_up,lande_lower,lande_upper,lande,gamrad,gamqst,gamvw,depth,reference,term_lower,term_upper,error,atom_number,ionization
TiO 1,4802.242,-0.626,0.7608088803433469,76.0,3.340943028765326,75.0,99.0,99.0,99.0,7.285,0.0,0.0,0.002,_          -1.75455           2 wl:PPN2012   2 gf:PPN2012   2 PPN2012   2 PPN2012   2 PPN2012   2 PPN2012   2 PPN2012   2 PPN2012   2 PPN2012    (47)TiO,"8s2.9s1.3p4.1d1 X,3,2,0,76,3","8s2.11s1.3p4.1d1 C,3,2,0,75,6",0.5,1.0,1.0
TiO 1,4802.2519,0.16,0.7791364847801958,67.0,3.360207941336629,68.0,99.0,99.0,99.0,7.287000000000001,0.0,0.0,0.01,_                             6 wl:PPN2012   6 gf:PPN2012   6 PPN2012   6 PPN2012   6 PPN2012   6 PPN2012   6 PPN2012   6 PPN2012   6 PPN2012    (48)TiO,"8s2.9s1.3p4.1d1 X,3,2,0,66,4","8s2.11s1.3p4.1d1 C,3,2,0,67,7",0.5,1.0,1.0
TiO 1,4802.2597,0.507,0.836399714637971,94.0,3.4172341010104215,93.0,99.0,99.0,99.0,7.269,0.0,0.0,0.017,_          -0.433385          6 wl:PPN2012   6 gf:PPN2012   6 PPN2012   6 PPN2012   6 PPN2012   6 PPN2012   6 PPN2012   6 PPN2012   6 PPN2012    (48)TiO,"8s2.9s1.3p4.1d1 X,3,2,0,94,2","8s2.11s1.3p4.1d1 C,3,2,0,93,5",0.5,1.0,1.0
TiO 1,4802.2645,-0.648,0.3185556981649347,66.0,2.899666904055077,67.0,99.0,99.0,99.0,7.301,0.0,0.0,0.009000000000000001,_          0.0865081          2 wl:PPN2012   2 gf:PPN2012   2 PPN2012   2 PPN2012   2 PPN2012   2 PPN2012   2 PPN2012   2 PPN2012   2 PPN2012    (47)TiO,"8s2.9s1.3p4.1d1 X,3,2,0,67,0","8s2.11s1.3p4.1d1 C,3,2,0,68,2",0.5,1.0,1.0
Cr 1,4802.2768,-3.457,3.9795577334895205,6.0,6.560615750158948,6.0,1.0,1.17,1.08,7.6,-6.2,-7.79,0.002,_          Kurucz Cr I 2016  10 wl:K16  10 gf:K16  10 K16  10 K16  10 K16  10 K16  10 K16  10 K16  10 K16    Cr,3d4.4s2 a1I,3d4.(a1G).4s.4p.(3P*) x3H*,0.5,1.0,1.0
TiO 1,4802.2795,-0.804,0.29957456062480103,66.0,2.8806644660298177,67.0,99.0,99.0,99.0,7.3020000000000005,0.0,0.0,0.006,_          0.0618665          4 wl:PPN2012   4 gf:PPN2012   4 PPN2012   4 PPN2012   4 PPN2012   4 PPN2012   4 PPN2012   4 PPN2012   4 PPN2012    (50)TiO,"8s2.9s1.3p4.1d1 X,3,2,0,66,0","8s2.11s1.3p4.1d1 C,3,2,0,67,2",0.5,1.0,1.0
TiO 1,4802.2856,0.5,0.9316454290002014,109.0,3.5124795054121583,108.0,99.0,99.0,99.0,7.251,0.0,0.0,0.012,_          -0.407909          6 wl:PPN2012   6 gf:PPN2012   6 PPN2012   6 PPN2012   6 PPN2012   6 PPN2012   6 PPN2012   6 PPN2012   6 PPN2012    (48)TiO,"8s2.9s1.3p4.1d1 X,3,2,0,110,1","8s2.11s1.3p4.1d1 C,3,2,0,109,4",0.5,1.0,1.0
TiO 1,4802.2912,-0.7929999999999999,0.3068130184399217,65.0,2.887909482608985,66.0,99.0,99.0,99.0,7.3020000000000005,0.0,0.0,0.006,_          0.0857681          8 wl:PPN2012   8 gf:PPN2012   8 PPN2012   8 PPN2012   8 PPN2012   8 PPN2012   8 PPN2012   8 PPN2012   8 PPN2012    (49)TiO,"8s2.9s1.3p4.1d1 X,3,2,0,66,0","8s2.11s1.3p4.1d1 C,3,2,0,67,2",0.5,1.0,1.0
TiO 1,4802.2995,-0.787,0.727819289064693,75.0,3.309162655364598,74.0,99.0,99.0,99.0,7.2860000000000005,0.0,0.0,0.001,_          0.553517           4 wl:PPN2012   4 gf:PPN2012   4 PPN2012   4 PPN2012   4 PPN2012   4 PPN2012   4 PPN2012   4 PPN2012   4 PPN2012    (50)TiO,"8s2.9s1.3p4.1d1 X,3,2,0,74,3","8s2.11s1.3p4.1d1 C,3,2,0,73,6",0.5,1.0,1.0
TiO 1,4802.3111,0.192,0.17341639943939305,47.0,2.7545023621469302,46.0,99.0,99.0,99.0,7.316,0.0,0.0,0.1,_          0.0861867          6 wl:PPN2012   6 gf:PPN2012   6 PPN2012   6 PPN2012   6 PPN2012   6 PPN2012   6 PPN2012   6 PPN2012   6 PPN2012    (48)TiO,"8s2.9s1.3p4.1d1 X,3,2,0,48,0","8s2.11s1.3p4.1d1 C,3,2,0,47,2",0.5,1.0,1.0
TiO 1,4802.3234,-0.39299999999999996,0.991223047075312,48.0,3.572256130522628,48.0,99.0,99.0,99.0,7.502000000000001,0.0,0.0,0.001,_                             6 wl:PPN2012   6 gf:PPN2012   6 PPN2012   6 PPN2012   6 PPN2012   6 PPN2012   6 PPN2012   6 PPN2012   6 PPN2012    (48)TiO,"8s2.9s1.3p4.1d1 X,3,2,-,47,7","8s2.3p4.4p1.1d1 B,3,1,+,47,11",0.5,1.0,1.0
TiO 1,4802.354,0.355,0.31124744964505807,67.0,2.8922965394522677,68.0,99.0,99.0,99.0,7.301,0.0,0.0,0.086,_          0.0604789          6 wl:PPN2012   6 gf:PPN2012   6 PPN2012   6 PPN2012   6 PPN2012   6 PPN2012   6 PPN2012   6 PPN2012   6 PPN2012    (48)TiO,"8s2.9s1.3p4.1d1 X,3,2,0,67,0","8s2.11s1.3p4.1d1 C,3,2,0,68,2",0.5,1.0,1.0
TiO 1,4802.3655,-0.97,0.1657223740890881,46.0,2.7467797584391085,45.0,99.0,99.0,99.0,7.317,0.0,0.0,0.006999999999999999,_          0.0874156          4 wl:PPN2012   4 gf:PPN2012   4 PPN2012   4 PPN2012   4 PPN2012   4 PPN2012   4 PPN2012   4 PPN2012   4 PPN2012    (50)TiO,"8s2.9s1.3p4.1d1 X,3,2,0,47,0","8s2.11s1.3p4.1d1 C,3,2,0,46,2",0.5,1.0,1.0
TiO 1,4802.3826,-0.589,0.32348708283037075,68.0,2.90452001749665,69.0,99.0,99.0,99.0,7.3,0.0,0.0,0.01,_          0.0590892          3 wl:PPN2012   3 gf:PPN2012   3 PPN2012   3 PPN2012   3 PPN2012   3 PPN2012   3 PPN2012   3 PPN2012   3 PPN2012    (46)TiO,"8s2.9s1.3p4.1d1 X,3,2,0,68,0","8s2.11s1.3p4.1d1 C,3,2,0,69,2",0.5,1.0,1.0
TiO 1,4802.4073,-0.887,0.6757115329108613,51.0,3.2566994861102985,50.0,99.0,99.0,99.0,7.3,0.0,0.0,0.001,_                             3 wl:PPN2012   3 gf:PPN2012   3 PPN2012   3 PPN2012   3 PPN2012   3 PPN2012   3 PPN2012   3 PPN2012   3 PPN2012    (46)TiO,"8s2.9s1.3p4.1d1 X,3,2,0,51,4","8s2.11s1.3p4.1d1 C,3,2,0,50,7",0.5,1.0,1.0
TiO 1,4802.4093,-0.951,0.16492917278735322,48.0,2.745960222893831,47.0,99.0,99.0,99.0,7.316,0.0,0.0,0.006999999999999999,_          0.0822677          4 wl:PPN2012   4 gf:PPN2012   4 PPN2012   4 PPN2012   4 PPN2012   4 PPN2012   4 PPN2012   4 PPN2012   4 PPN2012    (50)TiO,"8s2.9s1.3p4.1d1 X,3,2,0,48,0","8s2.11s1.3p4.1d1 C,3,2,0,47,2",0.5,1.0,1.0
TiO 1,4802.4135,0.34600000000000003,1.3560818712290208,102.0,3.9370664892535454,101.0,99.0,99.0,99.0,7.348,0.0,0.0,0.001,_                             6 wl:PPN2012   6 gf:PPN2012   6 PPN2012   6 PPN2012   6 PPN2012   6 PPN2012   6 PPN2012   6 PPN2012   6 PPN2012    (48)TiO,"8s2.9s1.3p4.1d1 a,1,2,0,102,2","8s2.11s1.3p4.1d1 f,1,2,0,101,5",0.5,1.0,1.0
TiO 1,4802.4207,0.39799999999999996,1.3389069602744714,68.0,3.9198876108046776,69.0,99.0,99.0,99.0,7.351,0.0,0.0,0.002,_                             6 wl:PPN2012   6 gf:PPN2012   6 PPN2012   6 PPN2012   6 PPN2012   6 PPN2012   6 PPN2012   6 PPN2012   6 PPN2012    (48)TiO,"8s2.9s1.3p4.1d1 a,1,2,0,68,5","8s2.11s1.3p4.1d1 f,1,2,0,69,8",0.5,1.0,1.0
MgH 1,4802.4235,-1.702,1.0319465122253377,29.5,3.612925674945174,28.5,99.0,99.0,99.0,7.06,0.0,0.0,0.002,_                            18 wl:KMGH  18 gf:KMGH  18 KMGH  18 KMGH  18 KMGH  18 KMGH  18 KMGH  18 KMGH  18 KMGH    (24)MgH,"4s2.5s1 X,2,0,e,29,3","4s1.5s2/4s2.7s1/4s2.6s1 B,2,0,e,28,7",0.5,1.0,1.0
MgH 1,4802.4235,-1.7169999999999999,1.0319465122253377,28.5,3.612925674945174,27.5,99.0,99.0,99.0,7.06,0.0,0.0,0.001,_                            18 wl:KMGH  18 gf:KMGH  18 KMGH  18 KMGH  18 KMGH  18 KMGH  18 KMGH  18 KMGH  18 KMGH    (24)MgH,"4s2.5s1 X,2,0,f,29,3","4s1.5s2/4s2.7s1/4s2.6s1 B,2,0,f,28,7",0.5,1.0,1.0
MgH 1,4802.424,-1.619,0.021306188398451487,5.5,2.6022851031498933,5.5,99.0,99.0,99.0,7.39,0.0,0.0,0.069,_                            18 wl:KMGH  18 gf:KMGH  18 KMGH  18 KMGH  18 KMGH  18 KMGH  18 KMGH  18 KMGH  18 KMGH    (24)MgH,"4s2.5s1 X,2,0,e,5,0","4s2.2p1 A,2,1,f,5,1",0.5,1.0,1.0
TiO 1,4802.43,-0.774,0.7507741077353245,74.0,3.331726167509594,73.0,99.0,99.0,99.0,7.2860000000000005,0.0,0.0,0.001,_          -0.0440553         8 wl:PPN2012   8 gf:PPN2012   8 PPN2012   8 PPN2012   8 PPN2012   8 PPN2012   8 PPN2012   8 PPN2012   8 PPN2012    (49)TiO,"8s2.9s1.3p4.1d1 X,3,2,0,75,3","8s2.11s1.3p4.1d1 C,3,2,0,74,6",0.5,1.0,1.0
TiO 1,4802.4398,-0.631,0.8374599531042172,93.0,3.418300365108665,92.0,99.0,99.0,99.0,7.269,0.0,0.0,0.001,_          -0.241964          8 wl:PPN2012   8 gf:PPN2012   8 PPN2012   8 PPN2012   8 PPN2012   8 PPN2012   8 PPN2012   8 PPN2012   8 PPN2012    (49)TiO,"8s2.9s1.3p4.1d1 X,3,2,0,94,2","8s2.11s1.3p4.1d1 C,3,2,0,93,5",0.5,1.0,1.0
TiO 1,4802.4399,-0.473,0.8919000007934988,63.0,3.472870397830574,63.0,99.0,99.0,99.0,7.422000000000001,0.0,0.0,0.001,_                             6 wl:PPN2012   6 gf:PPN2012   6 PPN2012   6 PPN2012   6 PPN2012   6 PPN2012   6 PPN2012   6 PPN2012   6 PPN2012    (48)TiO,"8s2.9s1.3p4.1d1 X,3,2,+,64,5","8s2.3p4.4p1.1d1 B,3,1,-,64,9",0.5,1.0,1.0
Nb 1,4802.44,-1.91,0.08620001329110596,3.5,2.667170373132922,3.5,1.58,1.44,1.51,0.0,0.0,0.0,0.48700000000000004,_          Cu 1 - Ba 2 Bell  17 wl:DLa  17 gf:DLa  17 DLa  17 DLa  17 DLa  17 DLa  17 DLa  17 DLa  17 DLa    Nb,4d4.(a5D).5s a6D,4d3.5s.(a3F).5p z4D*,0.5,1.0,1.0
TiO 1,4802.4447,-0.731,0.18132765750208543,50.0,2.7623387833480297,49.0,99.0,99.0,99.0,7.315,0.0,0.0,0.012,_          0.0805595          3 wl:PPN2012   3 gf:PPN2012   3 PPN2012   3 PPN2012   3 PPN2012   3 PPN2012   3 PPN2012   3 PPN2012   3 PPN2012    (46)TiO,"8s2.9s1.3p4.1d1 X,3,2,0,50,0","8s2.11s1.3p4.1d1 C,3,2,0,49,2",0.5,1.0,1.0
Cr 1,4802.4459,-0.191,3.5505308755367277,3.0,6.131498011789409,4.0,1.33,1.24,1.1,7.69,-5.91,-7.78,0.794,_          Kurucz Cr I 2016  10 wl:K16  10 gf:K16  10 K16  10 K16  10 K16  10 K16  10 K16  10 K16  10 K16    Cr,3d5.(4D).4s a3D,3d4.(a3F).4s.4p.(3P*) w3G*,0.5,1.0,1.0
TiO 1,4802.4521,0.21100000000000002,0.1729265998672873,49.0,2.753934266554122,48.0,99.0,99.0,99.0,7.316,0.0,0.0,0.10400000000000001,_          0.0814220          6 wl:PPN2012   6 gf:PPN2012   6 PPN2012   6 PPN2012   6 PPN2012   6 PPN2012   6 PPN2012   6 PPN2012   6 PPN2012    (48)TiO,"8s2.9s1.3p4.1d1 X,3,2,0,49,0","8s2.11s1.3p4.1d1 C,3,2,0,48,2",0.5,1.0,1.0
Ce 2,4802.4651,-2.55,1.2787930981468827,4.5,3.8597499437111744,3.5,1.04,0.98,1.15,0.0,0.0,0.0,0.003,C 0.006    Ce 2: DREAM data  15 wl:PQWB  15 gf:PQWB  15 PQWB  15 PQWB  15 PQWB  15 PQWB  15 PQWB  15 PQWB  15 PQWB    Ce+,4f2.(3H).5d 4G,4f2.(3H<5>).6p.<3/2> *,0.006,1.0,2.0
TiO 1,4802.4775,0.262,1.0228915371362428,123.0,3.6038714809565233,122.0,99.0,99.0,99.0,7.231,0.0,0.0,0.005,_          0.0554106          6 wl:PPN2012   6 gf:PPN2012   6 PPN2012   6 PPN2012   6 PPN2012   6 PPN2012   6 PPN2012   6 PPN2012   6 PPN2012    (48)TiO,"8s2.9s1.3p4.1d1 X,3,2,0,124,0","8s2.11s1.3p4.1d1 C,3,2,0,123,3",0.5,1.0,1.0
TiO 1,4802.4778,-0.524,0.8987696676132447,90.0,3.482280054513372,91.0,99.0,99.0,99.0,7.268,0.0,0.0,0.001,_          4.75946            3 wl:PPN2012   3 gf:PPN2012   3 PPN2012   3 PPN2012   3 PPN2012   3 PPN2012   3 PPN2012   3 PPN2012   3 PPN2012    (46)TiO,"8s2.9s1.3p4.1d1 X,3,2,0,89,3","8s2.11s1.3p4.1d1 C,3,2,0,90,6",0.5,1.0,1.0
TiO 1,4802.4795,0.376,1.2292484921041904,69.0,3.8101976754450786,68.0,99.0,99.0,99.0,7.358,0.0,0.0,0.003,_                             6 wl:PPN2012   6 gf:PPN2012   6 PPN2012   6 PPN2012   6 PPN2012   6 PPN2012   6 PPN2012   6 PPN2012   6 PPN2012    (48)TiO,"8s2.9s1.3p4.1d1 a,1,2,0,69,4","8s2.11s1.3p4.1d1 f,1,2,0,68,7",0.5,1.0,1.0
TiO 1,4802.4917,-0.932,0.6603137370523302,51.0,3.241256262441814,50.0,99.0,99.0,99.0,7.3,0.0,0.0,0.001,_                             2 wl:PPN2012   2 gf:PPN2012   2 PPN2012   2 PPN2012   2 PPN2012   2 PPN2012   2 PPN2012   2 PPN2012   2 PPN2012    (47)TiO,"8s2.9s1.3p4.1d1 X,3,2,0,50,4","8s2.11s1.3p4.1d1 C,3,2,0,49,7",0.5,1.0,1.0
MgH 1,4802.4937,-2.001,0.36715118037915356,5.5,2.948092651902959,6.5,99.0,99.0,99.0,7.06,0.0,0.0,0.009000000000000001,_                            18 wl:KMGH  18 gf:KMGH  18 KMGH  18 KMGH  18 KMGH  18 KMGH  18 KMGH  18 KMGH  18 KMGH    (24)MgH,"4s2.5s1 X,2,0,e,5,2","4s1.5s2/4s2.7s1/4s2.6s1 B,2,0,e,6,2",0.5,1.0,1.0
MgH 1,4802.4937,-2.075,0.36715118037915356,4.5,2.948092651902959,5.5,99.0,99.0,99.0,7.06,0.0,0.0,0.006999999999999999,_                            18 wl:KMGH  18 gf:KMGH  18 KMGH  18 KMGH  18 KMGH  18 KMGH  18 KMGH  18 KMGH  18 KMGH    (24)MgH,"4s2.5s1 X,2,0,f,5,2","4s1.5s2/4s2.7s1/4s2.6s1 B,2,0,f,6,2",0.5,1.0,1.0
Fe 1,4802.5227,-1.82,4.606951000453286,2.0,7.187876849968211,2.0,1.84,1.52,1.68,8.47,-5.33,-7.33,0.35,N D        Kurucz Fe I 2014   5 wl:K14  35 gf:FMW   5 K14   5 K14   5 K14   5 K14   5 K14  25 BPM   5 K14    Fe,3d6.(5D).4s.4p.(1P*) y5P*,3d6.(5D).4s\ (4D).4d i5D,0.5,1.0,1.0
Mn 1,4802.5243,-3.4960000000000004,4.2729078162613705,1.5,6.853832797886913,1.5,1.73,0.83,1.28,7.19,-6.18,-7.77,0.001,_          Kurucz MnI 2007   39 wl:K07  39 gf:K07  39 K07  39 K07  39 K07  39 K07  39 K07  39 K07  39 K07    Mn,3d6.(3P2).4s b4P,3d5.(4D).4s.4p.(3P*) x4D*,0.5,1.0,1.0
TiO 1,4802.5549,-0.44799999999999995,0.9367525116718723,110.0,3.5175349610640025,109.0,99.0,99.0,99.0,7.25,0.0,0.0,0.001,_          -0.234827          3 wl:PPN2012   3 gf:PPN2012   3 PPN2012   3 PPN2012   3 PPN2012   3 PPN2012   3 PPN2012   3 PPN2012   3 PPN2012    (46)TiO,"8s2.9s1.3p4.1d1 X,3,2,0,110,1","8s2.11s1.3p4.1d1 C,3,2,0,109,4",0.5,1.0,1.0
TiO 1,4802.5627,0.009000000000000001,1.2087266525357745,28.0,3.7896310527845367,29.0,99.0,99.0,99.0,7.361000000000001,0.0,0.0,0.001,_                             6 wl:PPN2012   6 gf:PPN2012   6 PPN2012   6 PPN2012   6 PPN2012   6 PPN2012   6 PPN2012   6 PPN2012   6 PPN2012    (48)TiO,"8s2.9s1.3p4.1d1 a,1,2,0,28,6","8s2.11s1.3p4.1d1 f,1,2,0,29,9",0.5,1.0,1.0
Gd 2,4802.565,-1.87,0.6016090173210883,4.5,3.1825121777278755,3.5,1.76,2.18,1.02,0.0,0.0,0.0,0.09699999999999999,E 0.04     Wisconsin REE ex  11 wl:DLSC  11 gf:DLSC  11 DLSC  11 DLSC  11 DLSC  11 DLSC  11 DLSC  11 DLSC  11 DLSC    Gd+,4f7.(8S).5d2.(3F) 10F*,4f7.(8S).6s.6p.(3P) 10P,1.096478196143185,1.0,2.0
TiO 1,4802.575,-0.779,0.29536020137017416,67.0,2.876249760710499,68.0,99.0,99.0,99.0,7.301,0.0,0.0,0.006999999999999999,_          -0.0152830         8 wl:PPN2012   8 gf:PPN2012   8 PPN2012   8 PPN2012   8 PPN2012   8 PPN2012   8 PPN2012   8 PPN2012   8 PPN2012    (49)TiO,"8s2.9s1.3p4.1d1 X,3,2,0,66,0","8s2.11s1.3p4.1d1 C,3,2,0,67,2",0.5,1.0,1.0
TiO 1,4802.5888,0.489,1.3786411679113026,117.0,3.9595315579457506,116.0,99.0,99.0,99.0,7.228,0.0,0.0,0.002,_                             6 wl:PPN2012   6 gf:PPN2012   6 PPN2012   6 PPN2012   6 PPN2012   6 PPN2012   6 PPN2012   6 PPN2012   6 PPN2012    (48)TiO,"8s2.9s1.3p4.1d1 X,3,2,0,117,4","8s2.11s1.3p4.1d1 C,3,2,0,116,8",0.5,1.0,1.0
TiO 1,4802.6022,-0.634,0.3072828069625558,68.0,2.8881573270197274,69.0,99.0,99.0,99.0,7.3,0.0,0.0,0.009000000000000001,_          -0.0160172         2 wl:PPN2012   2 gf:PPN2012   2 PPN2012   2 PPN2012   2 PPN2012   2 PPN2012   2 PPN2012   2 PPN2012   2 PPN2012    (47)TiO,"8s2.9s1.3p4.1d1 X,3,2,0,67,0","8s2.11s1.3p4.1d1 C,3,2,0,68,2",0.5,1.0,1.0
TiO 1,4802.6035,-0.627,0.832875699394858,94.0,3.4135253617114976,93.0,99.0,99.0,99.0,7.269,0.0,0.0,0.001,_          -0.433385          8 wl:PPN2012   8 gf:PPN2012   8 PPN2012   8 PPN2012   8 PPN2012   8 PPN2012   8 PPN2012   8 PPN2012   8 PPN2012    (49)TiO,"8s2.9s1.3p4.1d1 X,3,2,0,94,2","8s2.11s1.3p4.1d1 C,3,2,0,93,5",0.5,1.0,1.0
TiO 1,4802.6065,-1.329,0.4665269323433113,24.0,3.0474078375866527,25.0,99.0,99.0,99.0,7.409,0.0,0.0,0.001,_                             3 wl:PPN2012   3 gf:PPN2012   3 PPN2012   3 PPN2012   3 PPN2012   3 PPN2012   3 PPN2012   3 PPN2012   3 PPN2012    (46)TiO,"8s2.9s1.3p4.1d1 a,1,2,0,24,0","8s2.11s1.3p4.1d1 f,1,2,0,25,2",0.5,1.0,1.0
Sc 1,4802.6083,-2.8760000000000003,1.9535656863318829,2.5,4.534445537709545,2.5,1.04,1.59,1.31,7.53,-5.71,-7.83,0.004,_          Kurucz ScI 2009   23 wl:K09  23 gf:K09  23 K09  23 K09  23 K09  23 K09  23 K09  23 K09  23 K09    Sc,3d.4s.(3D).4p 4F*,3d3 4P,0.5,1.0,1.0
TiO 1,4802.6361,0.35700000000000004,1.4781032748689984,116.0,4.058968248142965,117.0,99.0,99.0,99.0,7.223,0.0,0.0,0.001,_                             6 wl:PPN2012   6 gf:PPN2012   6 PPN2012   6 PPN2012   6 PPN2012   6 PPN2012   6 PPN2012   6 PPN2012   6 PPN2012    (48)TiO,"8s2.9s1.3p4.1d1 X,3,2,0,116,5","8s2.11s1.3p4.1d1 C,3,2,0,117,9",0.5,1.0,1.0
TiO 1,4802.655,-1.32,0.14179724269063562,9.0,2.7226890089496756,10.0,99.0,99.0,99.0,7.33,0.0,0.0,0.004,_          0.0687815          3 wl:PPN2012   3 gf:PPN2012   3 PPN2012   3 PPN2012   3 PPN2012   3 PPN2012   3 PPN2012   3 PPN2012   3 PPN2012    (46)TiO,"8s2.9s1.3p4.1d1 X,3,2,0,9,1","8s2.11s1.3p4.1d1 C,3,2,0,10,3",0.5,1.0,1.0
TiO 1,4802.6583,-1.371,0.14059951814781496,8.0,2.721490577696929,9.0,99.0,99.0,99.0,7.33,0.0,0.0,0.003,_          0.0706617          3 wl:PPN2012   3 gf:PPN2012   3 PPN2012   3 PPN2012   3 PPN2012   3 PPN2012   3 PPN2012   3 PPN2012   3 PPN2012    (46)TiO,"8s2.9s1.3p4.1d1 X,3,2,0,8,1","8s2.11s1.3p4.1d1 C,3,2,0,9,3",0.5,1.0,1.0
TiO 1,4802.6766,-1.276,0.143127989878922,10.0,2.7240072089371776,11.0,99.0,99.0,99.0,7.329,0.0,0.0,0.004,_          0.0671442          3 wl:PPN2012   3 gf:PPN2012   3 PPN2012   3 PPN2012   3 PPN2012   3 PPN2012   3 PPN2012   3 PPN2012   3 PPN2012    (46)TiO,"8s2.9s1.3p4.1d1 X,3,2,0,10,1","8s2.11s1.3p4.1d1 C,3,2,0,11,3",0.5,1.0,1.0
TiO 1,4802.6864,-1.4269999999999998,0.13953482864887973,7.0,2.7204119151789388,8.0,99.0,99.0,99.0,7.331,0.0,0.0,0.003,_          0.0727918          3 wl:PPN2012   3 gf:PPN2012   3 PPN2012   3 PPN2012   3 PPN2012   3 PPN2012   3 PPN2012   3 PPN2012   3 PPN2012    (46)TiO,"8s2.9s1.3p4.1d1 X,3,2,0,7,1","8s2.11s1.3p4.1d1 C,3,2,0,8,3",0.5,1.0,1.0
TiO 1,4802.702,0.581,1.214251797522895,130.0,3.788461137897208,131.0,99.0,99.0,99.0,7.212999999999999,0.0,0.0,0.005,_          -12.3514           6 wl:PPN2012   6 gf:PPN2012   6 PPN2012   6 PPN2012   6 PPN2012   6 PPN2012   6 PPN2012   6 PPN2012   6 PPN2012    (48)TiO,"8s2.9s1.3p4.1d1 X,3,2,0,129,1","8s2.11s1.3p4.1d1 C,3,2,0,130,4",0.5,1.0,1.0
TiO 1,4802.7139,0.37,0.7578795801002388,76.0,3.33776023043207,75.0,99.0,99.0,99.0,7.285,0.0,0.0,0.017,_          -1.75455           6 wl:PPN2012   6 gf:PPN2012   6 PPN2012   6 PPN2012   6 PPN2012   6 PPN2012   6 PPN2012   6 PPN2012   6 PPN2012    (48)TiO,"8s2.9s1.3p4.1d1 X,3,2,0,76,3","8s2.11s1.3p4.1d1 C,3,2,0,75,6",0.5,1.0,1.0
TiO 1,4802.7232,-1.236,0.1445917473142543,11.0,2.725445177659436,12.0,99.0,99.0,99.0,7.329,0.0,0.0,0.004,_          0.0657431          3 wl:PPN2012   3 gf:PPN2012   3 PPN2012   3 PPN2012   3 PPN2012   3 PPN2012   3 PPN2012   3 PPN2012   3 PPN2012    (46)TiO,"8s2.9s1.3p4.1d1 X,3,2,0,11,1","8s2.11s1.3p4.1d1 C,3,2,0,12,3",0.5,1.0,1.0
Y 1,4802.7292,-0.392,2.3740475533950347,2.5,4.954862437053223,3.5,1.49,1.07,0.54,8.01,-5.14,-7.52,0.036000000000000004,_          Kurucz Y I 2006   32 wl:K06  32 gf:K06  32 K06  32 K06  32 K06  32 K06  32 K06  32 K06  32 K06    Y,4d.5s.(3D).5p z4P*,4d.5s.(3D).5d 2F,0.5,1.0,1.0
TiO 1,4802.7394,-1.494,0.1386031865922497,6.0,2.719453021395705,7.0,99.0,99.0,99.0,7.331,0.0,0.0,0.002,_          0.0751787          3 wl:PPN2012   3 gf:PPN2012   3 PPN2012   3 PPN2012   3 PPN2012   3 PPN2012   3 PPN2012   3 PPN2012   3 PPN2012    (46)TiO,"8s2.9s1.3p4.1d1 X,3,2,0,6,1","8s2.11s1.3p4.1d1 C,3,2,0,7,3",0.5,1.0,1.0
TiO 1,4802.7763,-0.65,0.8341034033166269,93.0,3.4147629719706445,92.0,99.0,99.0,99.0,7.269,0.0,0.0,0.001,_          -0.241964          4 wl:PPN2012   4 gf:PPN2012   4 PPN2012   4 PPN2012   4 PPN2012   4 PPN2012   4 PPN2012   4 PPN2012   4 PPN2012    (50)TiO,"8s2.9s1.3p4.1d1 X,3,2,0,94,2","8s2.11s1.3p4.1d1 C,3,2,0,93,5",0.5,1.0,1.0
TiO 1,4802.779,-0.493,0.9320958883864497,110.0,3.5127578499354786,109.0,99.0,99.0,99.0,7.25,0.0,0.0,0.001,_          -0.234827          2 wl:PPN2012   2 gf:PPN2012   2 PPN2012   2 PPN2012   2 PPN2012   2 PPN2012   2 PPN2012   2 PPN2012   2 PPN2012    (47)TiO,"8s2.9s1.3p4.1d1 X,3,2,0,110,1","8s2.11s1.3p4.1d1 C,3,2,0,109,4",0.5,1.0,1.0
TiO 1,4802.7901,0.564,1.1727434380123647,125.0,3.7530656332666466,126.0,99.0,99.0,99.0,7.222,0.0,0.0,0.005,_          -0.856242          6 wl:PPN2012   6 gf:PPN2012   6 PPN2012   6 PPN2012   6 PPN2012   6 PPN2012   6 PPN2012   6 PPN2012   6 PPN2012    (48)TiO,"8s2.9s1.3p4.1d1 X,3,2,0,126,1","8s2.11s1.3p4.1d1 C,3,2,0,127,4",0.5,1.0,1.0
TiO 1,4802.7947,-1.199,0.1461884654029536,12.0,2.7270029151164508,13.0,99.0,99.0,99.0,7.329,0.0,0.0,0.005,_          0.0645710          3 wl:PPN2012   3 gf:PPN2012   3 PPN2012   3 PPN2012   3 PPN2012   3 PPN2012   3 PPN2012   3 PPN2012   3 PPN2012    (46)TiO,"8s2.9s1.3p4.1d1 X,3,2,0,12,1","8s2.11s1.3p4.1d1 C,3,2,0,13,3",0.5,1.0,1.0