species,wlcent,gflog,excit,j_lo,e_upp,j_up,lande_lower,lande_upper,lande,gamrad,gamqst,gamvw,depth,reference,term_lower,term_upper,error,atom_number,ionization
TiO 1,4789.6289,-0.875,0.21964484974603077,56.0,2.807559291722914,57.0,99.0,99.0,99.0,7.31,0.0,0.0,0.006999999999999999,_          0.0752850          4 wl:PPN2012   4 gf:PPN2012   4 PPN2012   4 PPN2012   4 PPN2012   4 PPN2012   4 PPN2012   4 PPN2012   4 PPN2012    (50)TiO,"8s2.9s1.3p4.1d1 X,3,2,0,56,0","8s2.11s1.3p4.1d1 C,3,2,0,57,2",0.5,1.0,1.0
TiO 1,4789.6393,-0.8909999999999999,0.21885939745663777,54.0,2.8067734798793484,55.0,99.0,99.0,99.0,7.311,0.0,0.0,0.006999999999999999,_          0.0851134          4 wl:PPN2012   4 gf:PPN2012   4 PPN2012   4 PPN2012   4 PPN2012   4 PPN2012   4 PPN2012   4 PPN2012   4 PPN2012    (50)TiO,"8s2.9s1.3p4.1d1 X,3,2,0,55,0","8s2.11s1.3p4.1d1 C,3,2,0,56,2",0.5,1.0,1.0
CH 1,4789.642,-2.806,0.776873822770045,8.5,3.3647406796119395,9.5,99.0,99.0,99.0,6.27,0.0,0.0,0.006,_                            37 wl:JLIY  37 gf:JLIY  37 JLIY  37 JLIY  37 JLIY  37 JLIY  37 JLIY  37 JLIY  37 JLIY    (12)CH,"1s2.2s2.3s2.1p1 X,2,1,e,8,2","1s2.2s2.3s1.1p2 A,2,2,e,9,1",0.5,1.0,1.0
Fe 1,4789.6507,-0.958,3.546519986748569,2.0,6.134381884222565,3.0,1.03,1.0,0.98,7.46,-6.21,-7.8,0.8809999999999999,E 0.037    Kurucz Fe I 2014   5 wl:K14  35 gf:BWL   5 K14   5 K14   5 K14   5 K14   5 K14   5 K14   5 K14    Fe,3d7.(2D2).4s a1D,3d6.(3F2).4s.4p.(3P*) 1F*,1.0889300933334334,1.0,1.0
TiO 1,4789.6512,-0.027999999999999997,0.6190115632621929,40.0,3.2068732127677935,39.0,99.0,99.0,99.0,7.306,0.0,0.0,0.011000000000000001,_                             6 wl:PPN2012   6 gf:PPN2012   6 PPN2012   6 PPN2012   6 PPN2012   6 PPN2012   6 PPN2012   6 PPN2012   6 PPN2012    (48)TiO,"8s2.9s1.3p4.1d1 X,3,2,0,41,4","8s2.11s1.3p4.1d1 C,3,2,0,40,7",0.5,1.0,1.0
TiO 1,4789.6552,-0.648,0.774142996430247,89.0,3.361835357912622,88.0,99.0,99.0,99.0,7.274,0.0,0.0,0.002,_          -0.309463          8 wl:PPN2012   8 gf:PPN2012   8 PPN2012   8 PPN2012   8 PPN2012   8 PPN2012   8 PPN2012   8 PPN2012   8 PPN2012    (49)TiO,"8s2.9s1.3p4.1d1 X,3,2,0,89,2","8s2.11s1.3p4.1d1 C,3,2,0,88,5",0.5,1.0,1.0
TiO 1,4789.6553,0.5529999999999999,1.433257074786276,128.0,4.01837408611248,127.0,99.0,99.0,99.0,7.212999999999999,0.0,0.0,0.002,_          -5.08120           6 wl:PPN2012   6 gf:PPN2012   6 PPN2012   6 PPN2012   6 PPN2012   6 PPN2012   6 PPN2012   6 PPN2012   6 PPN2012    (48)TiO,"8s2.9s1.3p4.1d1 X,3,2,0,128,3","8s2.11s1.3p4.1d1 C,3,2,0,127,7",0.5,1.0,1.0
TiO 1,4789.6745,-0.45399999999999996,0.9084591318328931,65.0,3.4963082465361297,65.0,99.0,99.0,99.0,7.428,0.0,0.0,0.001,_                             6 wl:PPN2012   6 gf:PPN2012   6 PPN2012   6 PPN2012   6 PPN2012   6 PPN2012   6 PPN2012   6 PPN2012   6 PPN2012    (48)TiO,"8s2.9s1.3p4.1d1 X,3,2,+,66,5","8s2.3p4.4p1.1d1 B,3,1,-,66,9",0.5,1.0,1.0
Ce 2,4789.682,-1.49,0.7400625425885718,5.5,3.327907454227514,4.5,0.95,0.95,0.95,0.0,0.0,0.0,0.213,E 0.06     Wisconsin REE ex  11 wl:LSCI  11 gf:LSCI  11 LSCI  11 LSCI  11 LSCI  11 LSCI  11 LSCI  11 LSCI  11 LSCI    Ce+,4f.(2F*).5d2.(1G)* 4f.(2F*).5d2.(1G)*,4f.5d.(3H*).6p 4f.5d.(3H*).6p,1.1481536214968828,1.0,2.0
TiO 1,4789.6891,0.408,0.8247170680613731,84.0,3.4145381886206314,85.0,99.0,99.0,99.0,7.275,0.0,0.0,0.013999999999999999,_          3.66180            6 wl:PPN2012   6 gf:PPN2012   6 PPN2012   6 PPN2012   6 PPN2012   6 PPN2012   6 PPN2012   6 PPN2012   6 PPN2012    (48)TiO,"8s2.9s1.3p4.1d1 X,3,2,0,83,3","8s2.11s1.3p4.1d1 C,3,2,0,84,6",0.5,1.0,1.0
TiO 1,4789.7075,-1.06,0.11144974226165029,36.0,2.6993354694983998,35.0,99.0,99.0,99.0,7.322,0.0,0.0,0.006999999999999999,_          0.100802           8 wl:PPN2012   8 gf:PPN2012   8 PPN2012   8 PPN2012   8 PPN2012   8 PPN2012   8 PPN2012   8 PPN2012   8 PPN2012    (49)TiO,"8s2.9s1.3p4.1d1 X,3,2,0,37,0","8s2.11s1.3p4.1d1 C,3,2,0,36,2",0.5,1.0,1.0
Fe 1,4789.7088,-3.983,4.154353754687842,3.0,6.742184284159878,3.0,1.49,0.84,1.17,8.44,-4.7,-7.46,0.022000000000000002,_          Kurucz Fe I 2014   5 wl:K14   5 gf:K14   5 K14   5 K14   5 K14   5 K14   5 K14   5 K14   5 K14    Fe,3d7.(4F).4p y5D*,3d7.(4F).4d e3G,0.5,1.0,1.0
TiO 1,4789.7201,0.127,1.3259973536812892,86.0,3.913821683943451,86.0,99.0,99.0,99.0,7.585,0.0,0.0,0.001,_                             6 wl:PPN2012   6 gf:PPN2012   6 PPN2012   6 PPN2012   6 PPN2012   6 PPN2012   6 PPN2012   6 PPN2012   6 PPN2012    (48)TiO,"8s2.9s1.3p4.1d1 X,3,2,-,86,7","8s2.3p4.4p1.1d1 B,3,1,+,86,10",0.5,1.0,1.0
Mn 1,4789.7244,-2.786,4.424996999582421,1.5,7.012819098129029,2.5,2.4,1.39,0.64,8.7,-5.06,-7.51,0.003,_          Kurucz MnI 2007   39 wl:K07  39 gf:K07  39 K07  39 K07  39 K07  39 K07  39 K07  39 K07  39 K07    Mn,3d5.(6S).4s.4p.(1P*) y6P*,e4D e4D,0.5,1.0,1.0
TiO 1,4789.7364,-0.8290000000000001,0.7196159862248598,59.0,3.30743158799952,60.0,99.0,99.0,99.0,7.294,0.0,0.0,0.001,_                             3 wl:PPN2012   3 gf:PPN2012   3 PPN2012   3 PPN2012   3 PPN2012   3 PPN2012   3 PPN2012   3 PPN2012   3 PPN2012    (46)TiO,"8s2.9s1.3p4.1d1 X,3,2,0,58,4","8s2.11s1.3p4.1d1 C,3,2,0,59,7",0.5,1.0,1.0
TiO 1,4789.7389,-0.703,0.23804078187410546,58.0,2.8258943228131916,59.0,99.0,99.0,99.0,7.308,0.0,0.0,0.01,_          0.0727040          2 wl:PPN2012   2 gf:PPN2012   2 PPN2012   2 PPN2012   2 PPN2012   2 PPN2012   2 PPN2012   2 PPN2012   2 PPN2012    (47)TiO,"8s2.9s1.3p4.1d1 X,3,2,0,58,0","8s2.11s1.3p4.1d1 C,3,2,0,59,2",0.5,1.0,1.0
TiO 1,4789.7409,-0.37200000000000005,1.003601554960211,50.0,3.5914147886366994,50.0,99.0,99.0,99.0,7.507000000000001,0.0,0.0,0.001,_                             6 wl:PPN2012   6 gf:PPN2012   6 PPN2012   6 PPN2012   6 PPN2012   6 PPN2012   6 PPN2012   6 PPN2012   6 PPN2012    (48)TiO,"8s2.9s1.3p4.1d1 X,3,2,-,49,7","8s2.3p4.4p1.1d1 B,3,1,+,49,11",0.5,1.0,1.0
TiO 1,4789.774,0.35600000000000004,1.4170079538342362,113.0,4.004803271794191,114.0,99.0,99.0,99.0,7.228,0.0,0.0,0.001,_                             6 wl:PPN2012   6 gf:PPN2012   6 PPN2012   6 PPN2012   6 PPN2012   6 PPN2012   6 PPN2012   6 PPN2012   6 PPN2012    (48)TiO,"8s2.9s1.3p4.1d1 X,3,2,0,112,5","8s2.11s1.3p4.1d1 C,3,2,0,113,9",0.5,1.0,1.0
TiO 1,4789.7829,-1.052,0.09576098028849636,38.0,2.6835840211150046,37.0,99.0,99.0,99.0,7.322,0.0,0.0,0.008,_          0.0602086          4 wl:PPN2012   4 gf:PPN2012   4 PPN2012   4 PPN2012   4 PPN2012   4 PPN2012   4 PPN2012   4 PPN2012   4 PPN2012    (50)TiO,"8s2.9s1.3p4.1d1 X,3,2,0,37,0","8s2.11s1.3p4.1d1 C,3,2,0,36,2",0.5,1.0,1.0
Ti 1,4789.7863,-2.75,0.8359951913968854,4.0,3.423783814210176,4.0,1.35,1.05,1.2,8.25,-5.99,-7.601,0.905,E0.04      Kurucz TiI 2016   22 wl:K16  24 gf:LGWSC  22 K16  22 K16  22 K16  22 K16  22 K16  25 BPM  22 K16    Ti,3d3.(4F).4s a5F,3d2.(3F).4s.4p.(1P*) y3G*,1.096478196143185,1.0,1.0
TiO 1,4789.7946,-0.873,0.10758813044724572,40.0,2.6954005830232903,39.0,99.0,99.0,99.0,7.321000000000001,0.0,0.0,0.011000000000000001,_          0.0522131          2 wl:PPN2012   2 gf:PPN2012   2 PPN2012   2 PPN2012   2 PPN2012   2 PPN2012   2 PPN2012   2 PPN2012   2 PPN2012    (47)TiO,"8s2.9s1.3p4.1d1 X,3,2,0,39,0","8s2.11s1.3p4.1d1 C,3,2,0,38,2",0.5,1.0,1.0
TiO 1,4789.7991,0.317,1.2428392926751128,56.0,3.830621096357543,57.0,99.0,99.0,99.0,7.357,0.0,0.0,0.002,_                             6 wl:PPN2012   6 gf:PPN2012   6 PPN2012   6 PPN2012   6 PPN2012   6 PPN2012   6 PPN2012   6 PPN2012   6 PPN2012    (48)TiO,"8s2.9s1.3p4.1d1 a,1,2,0,56,5","8s2.11s1.3p4.1d1 f,1,2,0,57,8",0.5,1.0,1.0
MgH 1,4789.807,-1.023,0.2839031068456139,11.5,2.8716805710811326,11.5,99.0,99.0,99.0,7.39,0.0,0.0,0.10400000000000001,_                            18 wl:KMGH  18 gf:KMGH  18 KMGH  18 KMGH  18 KMGH  18 KMGH  18 KMGH  18 KMGH  18 KMGH    (24)MgH,"4s2.5s1 X,2,0,f,12,1","4s2.2p1 A,2,1,e,12,2",0.5,1.0,1.0
TiO 1,4789.8079,-0.8490000000000001,0.214513937311606,57.0,2.8022878555990767,58.0,99.0,99.0,99.0,7.309,0.0,0.0,0.008,_          -0.00584236        8 wl:PPN2012   8 gf:PPN2012   8 PPN2012   8 PPN2012   8 PPN2012   8 PPN2012   8 PPN2012   8 PPN2012   8 PPN2012    (49)TiO,"8s2.9s1.3p4.1d1 X,3,2,0,56,0","8s2.11s1.3p4.1d1 C,3,2,0,57,2",0.5,1.0,1.0
TiO 1,4789.816,-1.053,0.10814784470830487,38.0,2.6959689265844933,37.0,99.0,99.0,99.0,7.322,0.0,0.0,0.006999999999999999,_          0.0897365          4 wl:PPN2012   4 gf:PPN2012   4 PPN2012   4 PPN2012   4 PPN2012   4 PPN2012   4 PPN2012   4 PPN2012   4 PPN2012    (50)TiO,"8s2.9s1.3p4.1d1 X,3,2,0,38,0","8s2.11s1.3p4.1d1 C,3,2,0,37,2",0.5,1.0,1.0
TiO 1,4789.8204,0.496,0.8816477723015336,108.0,3.4667659118839347,107.0,99.0,99.0,99.0,7.252999999999999,0.0,0.0,0.013999999999999999,_          -4.91403           6 wl:PPN2012   6 gf:PPN2012   6 PPN2012   6 PPN2012   6 PPN2012   6 PPN2012   6 PPN2012   6 PPN2012   6 PPN2012    (48)TiO,"8s2.9s1.3p4.1d1 X,3,2,0,107,1","8s2.11s1.3p4.1d1 C,3,2,0,106,4",0.5,1.0,1.0
TiO 1,4789.8259,-0.513,0.8803238814393674,105.0,3.4679132616473236,104.0,99.0,99.0,99.0,7.256,0.0,0.0,0.001,_          -0.329368          2 wl:PPN2012   2 gf:PPN2012   2 PPN2012   2 PPN2012   2 PPN2012   2 PPN2012   2 PPN2012   2 PPN2012   2 PPN2012    (47)TiO,"8s2.9s1.3p4.1d1 X,3,2,0,106,1","8s2.11s1.3p4.1d1 C,3,2,0,105,4",0.5,1.0,1.0
TiO 1,4789.8391,-0.6509999999999999,0.2332966505421085,59.0,2.821052367949391,60.0,99.0,99.0,99.0,7.307,0.0,0.0,0.012,_          -0.00819492        3 wl:PPN2012   3 gf:PPN2012   3 PPN2012   3 PPN2012   3 PPN2012   3 PPN2012   3 PPN2012   3 PPN2012   3 PPN2012    (46)TiO,"8s2.9s1.3p4.1d1 X,3,2,0,58,0","8s2.11s1.3p4.1d1 C,3,2,0,59,2",0.5,1.0,1.0
TiO 1,4789.8883,0.505,1.5350469850514732,126.0,4.122780558881088,127.0,99.0,99.0,99.0,7.21,0.0,0.0,0.001,_                             6 wl:PPN2012   6 gf:PPN2012   6 PPN2012   6 PPN2012   6 PPN2012   6 PPN2012   6 PPN2012   6 PPN2012   6 PPN2012    (48)TiO,"8s2.9s1.3p4.1d1 X,3,2,0,127,4","8s2.11s1.3p4.1d1 C,3,2,0,128,8",0.5,1.0,1.0
Nb 2,4789.893,-0.14,2.4411918154559693,3.0,5.028923033585832,4.0,1.31,1.26,1.18,0.0,0.0,0.0,0.026000000000000002,_          Cu 1 - Ba 2 Bell  17 wl:HLB  17 gf:HLB  17 HLB  17 HLB  17 HLB  17 HLB  17 HLB  17 HLB  17 HLB    Nb+,4d3.(2D).5s b3D,4d3.(a4F).5p z3F*,0.5,1.0,2.0
TiO 1,4789.8935,-1.004,0.6061501121313082,42.0,3.193880908714899,41.0,99.0,99.0,99.0,7.305,0.0,0.0,0.001,_                             2 wl:PPN2012   2 gf:PPN2012   2 PPN2012   2 PPN2012   2 PPN2012   2 PPN2012   2 PPN2012   2 PPN2012   2 PPN2012    (47)TiO,"8s2.9s1.3p4.1d1 X,3,2,0,41,4","8s2.11s1.3p4.1d1 C,3,2,0,40,7",0.5,1.0,1.0
TiO 1,4789.8938,-0.8740000000000001,0.1201182958024902,40.0,2.7078967023179095,39.0,99.0,99.0,99.0,7.321000000000001,0.0,0.0,0.011000000000000001,_          0.0883929          2 wl:PPN2012   2 gf:PPN2012   2 PPN2012   2 PPN2012   2 PPN2012   2 PPN2012   2 PPN2012   2 PPN2012   2 PPN2012    (47)TiO,"8s2.9s1.3p4.1d1 X,3,2,0,40,0","8s2.11s1.3p4.1d1 C,3,2,0,39,2",0.5,1.0,1.0
TiO 1,4789.8996,0.42100000000000004,0.8846356178826872,88.0,3.4692165835311295,89.0,99.0,99.0,99.0,7.27,0.0,0.0,0.012,_          -5.83127           6 wl:PPN2012   6 gf:PPN2012   6 PPN2012   6 PPN2012   6 PPN2012   6 PPN2012   6 PPN2012   6 PPN2012   6 PPN2012    (48)TiO,"8s2.9s1.3p4.1d1 X,3,2,0,88,3","8s2.11s1.3p4.1d1 C,3,2,0,89,6",0.5,1.0,1.0
TiO 1,4789.9125,-0.6659999999999999,0.24551723975468984,57.0,2.833283161061424,58.0,99.0,99.0,99.0,7.308,0.0,0.0,0.011000000000000001,_          0.0840645          3 wl:PPN2012   3 gf:PPN2012   3 PPN2012   3 PPN2012   3 PPN2012   3 PPN2012   3 PPN2012   3 PPN2012   3 PPN2012    (46)TiO,"8s2.9s1.3p4.1d1 X,3,2,0,58,0","8s2.11s1.3p4.1d1 C,3,2,0,59,2",0.5,1.0,1.0
Fe 1,4789.9247,-3.054,4.593110396521301,4.0,7.180824256863517,4.0,1.25,1.26,1.25,7.4,-4.75,-7.46,0.045,_          Kurucz Fe I 2014   5 wl:K14   5 gf:K14   5 K14   5 K14   5 K14   5 K14   5 K14   5 K14   5 K14    Fe,3d7.(2F).4s d3F,3d6.4s.(4D).5p 3F*,0.5,1.0,1.0
Tb 2,4789.929,-1.056,0.7901450912672474,6.0,3.377856471925514,7.0,1.4,99.0,99.0,0.0,0.0,0.0,0.051,_          La1 to Lu 2 Bell   1 wl:MC   1 gf:MC   1 MC   1 MC   1 MC   1 MC   1 MC   1 MC   1 MC    Tb+,"4f9.(6F*<11/2>).6s.<1/2> (11/2,1/2)*", ,0.5,1.0,2.0
TiO 1,4789.9331,-0.6709999999999999,0.7758467252797827,88.0,3.363458435041703,87.0,99.0,99.0,99.0,7.275,0.0,0.0,0.001,_          -0.180915          4 wl:PPN2012   4 gf:PPN2012   4 PPN2012   4 PPN2012   4 PPN2012   4 PPN2012   4 PPN2012   4 PPN2012   4 PPN2012    (50)TiO,"8s2.9s1.3p4.1d1 X,3,2,0,89,2","8s2.11s1.3p4.1d1 C,3,2,0,88,5",0.5,1.0,1.0
TiO 1,4789.9489,-0.655,0.703857867491641,70.0,3.2909129254021803,69.0,99.0,99.0,99.0,7.29,0.0,0.0,0.002,_          -1.19569           2 wl:PPN2012   2 gf:PPN2012   2 PPN2012   2 PPN2012   2 PPN2012   2 PPN2012   2 PPN2012   2 PPN2012   2 PPN2012    (47)TiO,"8s2.9s1.3p4.1d1 X,3,2,0,70,3","8s2.11s1.3p4.1d1 C,3,2,0,69,6",0.5,1.0,1.0
TiO 1,4789.9553,0.526,1.447601302528385,137.0,4.04178627008916,136.0,99.0,99.0,99.0,7.2,0.0,0.0,0.002,_          11.9788            6 wl:PPN2012   6 gf:PPN2012   6 PPN2012   6 PPN2012   6 PPN2012   6 PPN2012   6 PPN2012   6 PPN2012   6 PPN2012    (48)TiO,"8s2.9s1.3p4.1d1 X,3,2,0,136,2","8s2.11s1.3p4.1d1 C,3,2,0,135,6",0.5,1.0,1.0
Sm 1,4789.978,-0.32299999999999995,0.3875076498249839,5.0,2.975192993801782,4.0,1.5,1.04,2.39,0.0,0.0,0.0,0.08,_          La1 to Lu 2 Bell   1 wl:MC   1 gf:MC   1 MC   1 MC   1 MC   1 MC   1 MC   1 MC   1 MC    Sm,4f6.6s2 7F,4f6.(7F).6s.6p.(1P*) *,0.5,1.0,1.0
TiO 1,4789.9914,-0.865,0.22708853860322378,55.0,2.814812243290719,56.0,99.0,99.0,99.0,7.31,0.0,0.0,0.006999999999999999,_          0.0846738          8 wl:PPN2012   8 gf:PPN2012   8 PPN2012   8 PPN2012   8 PPN2012   8 PPN2012   8 PPN2012   8 PPN2012   8 PPN2012    (49)TiO,"8s2.9s1.3p4.1d1 X,3,2,0,56,0","8s2.11s1.3p4.1d1 C,3,2,0,57,2",0.5,1.0,1.0
Co 1,4792.8135,-2.173,3.2523427809705088,3.5,5.838496943045627,2.5,1.15,1.3,0.96,8.11,-5.41,-7.58,0.746,"_          Kurucz CoI 2008   12 wl:K08  12 gf:K08  12 K08  12 K08  12 K08  12 K08  12 K08  12 K08  12 K08   hfs:P,P Co",3p6.3d7.(4F).4s.4p.(3P*) z6G*,3p6.3d7.4s.(5F).5s e6F,0.5,1.0,1.0
Co 1,4792.8244,-1.469,3.252367715308478,3.5,5.838516010823325,2.5,1.15,1.3,0.96,8.11,-5.41,-7.58,0.746,"_          Kurucz CoI 2008   12 wl:K08  12 gf:K08  12 K08  12 K08  12 K08  12 K08  12 K08  12 K08  12 K08   hfs:P,P Co",3p6.3d7.(4F).4s.4p.(3P*) z6G*,3p6.3d7.4s.(5F).5s e6F,0.5,1.0,1.0
Co 1,4792.8266,-1.9509999999999998,3.252333865762805,3.5,5.83848100450509,2.5,1.15,1.3,0.96,8.11,-5.41,-7.58,0.746,"_          Kurucz CoI 2008   12 wl:K08  12 gf:K08  12 K08  12 K08  12 K08  12 K08  12 K08  12 K08  12 K08   hfs:P,P Co",3p6.3d7.(4F).4s.4p.(3P*) z6G*,3p6.3d7.4s.(5F).5s e6F,0.5,1.0,1.0
TiO 1,4792.829,-0.797,0.13751441936216577,43.0,2.7237067952267076,42.0,99.0,99.0,99.0,7.319,0.0,0.0,0.012,_          0.0862333          3 wl:PPN2012   3 gf:PPN2012   3 PPN2012   3 PPN2012   3 PPN2012   3 PPN2012   3 PPN2012   3 PPN2012   3 PPN2012    (46)TiO,"8s2.9s1.3p4.1d1 X,3,2,0,43,0","8s2.11s1.3p4.1d1 C,3,2,0,42,2",0.5,1.0,1.0
Co 1,4792.8344,-1.273,3.252354038735639,3.5,5.838496943045627,2.5,1.15,1.3,0.96,8.11,-5.41,-7.58,0.746,"_          Kurucz CoI 2008   12 wl:K08  12 gf:K08  12 K08  12 K08  12 K08  12 K08  12 K08  12 K08  12 K08   hfs:P,P Co",3p6.3d7.(4F).4s.4p.(3P*) z6G*,3p6.3d7.4s.(5F).5s e6F,0.5,1.0,1.0
TiO 1,4792.8364,-0.509,0.8940793206261103,106.0,3.480033336871016,105.0,99.0,99.0,99.0,7.255,0.0,0.0,0.001,_          -0.348100          2 wl:PPN2012   2 gf:PPN2012   2 PPN2012   2 PPN2012   2 PPN2012   2 PPN2012   2 PPN2012   2 PPN2012   2 PPN2012    (47)TiO,"8s2.9s1.3p4.1d1 X,3,2,0,107,1","8s2.11s1.3p4.1d1 C,3,2,0,106,4",0.5,1.0,1.0
TiO 1,4792.8366,-0.987,0.6300038906241165,44.0,3.216145618943992,43.0,99.0,99.0,99.0,7.303999999999999,0.0,0.0,0.001,_                             2 wl:PPN2012   2 gf:PPN2012   2 PPN2012   2 PPN2012   2 PPN2012   2 PPN2012   2 PPN2012   2 PPN2012   2 PPN2012    (47)TiO,"8s2.9s1.3p4.1d1 X,3,2,0,44,4","8s2.11s1.3p4.1d1 C,3,2,0,43,7",0.5,1.0,1.0
Co 1,4792.838,-1.8259999999999998,3.252327232608241,3.5,5.838468221734331,2.5,1.15,1.3,0.96,8.11,-5.41,-7.58,0.746,"_          Kurucz CoI 2008   12 wl:K08  12 gf:K08  12 K08  12 K08  12 K08  12 K08  12 K08  12 K08  12 K08   hfs:P,P Co",3p6.3d7.(4F).4s.4p.(3P*) z6G*,3p6.3d7.4s.(5F).5s e6F,0.5,1.0,1.0
TiO 1,4792.8421,-0.655,0.7186193392534962,70.0,3.3047830375731633,69.0,99.0,99.0,99.0,7.29,0.0,0.0,0.002,_          0.0459728          2 wl:PPN2012   2 gf:PPN2012   2 PPN2012   2 PPN2012   2 PPN2012   2 PPN2012   2 PPN2012   2 PPN2012   2 PPN2012    (47)TiO,"8s2.9s1.3p4.1d1 X,3,2,0,71,3","8s2.11s1.3p4.1d1 C,3,2,0,70,6",0.5,1.0,1.0
Co 1,4792.8431,-1.219,3.2523427809705088,3.5,5.83848100450509,2.5,1.15,1.3,0.96,8.11,-5.41,-7.58,0.746,"_          Kurucz CoI 2008   12 wl:K08  12 gf:K08  12 K08  12 K08  12 K08  12 K08  12 K08  12 K08  12 K08   hfs:P,P Co",3p6.3d7.(4F).4s.4p.(3P*) z6G*,3p6.3d7.4s.(5F).5s e6F,0.5,1.0,1.0
Co 1,4792.8476,-1.775,3.25232283588063,3.5,5.838458616058633,2.5,1.15,1.3,0.96,8.11,-5.41,-7.58,0.746,"_          Kurucz CoI 2008   12 wl:K08  12 gf:K08  12 K08  12 K08  12 K08  12 K08  12 K08  12 K08  12 K08   hfs:P,P Co",3p6.3d7.(4F).4s.4p.(3P*) z6G*,3p6.3d7.4s.(5F).5s e6F,0.5,1.0,1.0
Co 1,4792.8503,-1.2409999999999999,3.252333865762805,3.5,5.838468221734331,2.5,1.15,1.3,0.96,8.11,-5.41,-7.58,0.746,"_          Kurucz CoI 2008   12 wl:K08  12 gf:K08  12 K08  12 K08  12 K08  12 K08  12 K08  12 K08  12 K08   hfs:P,P Co",3p6.3d7.(4F).4s.4p.(3P*) z6G*,3p6.3d7.4s.(5F).5s e6F,0.5,1.0,1.0
TiO 1,4792.8513,0.322,1.2392893151410493,136.0,3.8253225076944593,137.0,99.0,99.0,99.0,7.202999999999999,0.0,0.0,0.002,_          -0.186637          6 wl:PPN2012   6 gf:PPN2012   6 PPN2012   6 PPN2012   6 PPN2012   6 PPN2012   6 PPN2012   6 PPN2012   6 PPN2012    (48)TiO,"8s2.9s1.3p4.1d1 X,3,2,0,137,0","8s2.11s1.3p4.1d1 C,3,2,0,138,3",0.5,1.0,1.0
Co 1,4792.8544,-0.629,3.2523839015694413,3.5,5.838516010823325,2.5,1.15,1.3,0.96,8.11,-5.41,-7.58,0.746,"_          Kurucz CoI 2008   12 wl:K08  12 gf:K08  12 K08  12 K08  12 K08  12 K08  12 K08  12 K08  12 K08   hfs:P,P Co",3p6.3d7.(4F).4s.4p.(3P*) z6G*,3p6.3d7.4s.(5F).5s e6F,0.5,1.0,1.0
Co 1,4792.8554,-1.805,3.2523206450798607,3.5,5.838452203471954,2.5,1.15,1.3,0.96,8.11,-5.41,-7.58,0.746,"_          Kurucz CoI 2008   12 wl:K08  12 gf:K08  12 K08  12 K08  12 K08  12 K08  12 K08  12 K08  12 K08   hfs:P,P Co",3p6.3d7.(4F).4s.4p.(3P*) z6G*,3p6.3d7.4s.(5F).5s e6F,0.5,1.0,1.0
Co 1,4792.8558,-1.3319999999999999,3.252327232608241,3.5,5.838458616058633,2.5,1.15,1.3,0.96,8.11,-5.41,-7.58,0.746,"_          Kurucz CoI 2008   12 wl:K08  12 gf:K08  12 K08  12 K08  12 K08  12 K08  12 K08  12 K08  12 K08   hfs:P,P Co",3p6.3d7.(4F).4s.4p.(3P*) z6G*,3p6.3d7.4s.(5F).5s e6F,0.5,1.0,1.0
Co 1,4792.8595,-1.52,3.25232283588063,3.5,5.838452203471954,2.5,1.15,1.3,0.96,8.11,-5.41,-7.58,0.746,"_          Kurucz CoI 2008   12 wl:K08  12 gf:K08  12 K08  12 K08  12 K08  12 K08  12 K08  12 K08  12 K08   hfs:P,P Co",3p6.3d7.(4F).4s.4p.(3P*) z6G*,3p6.3d7.4s.(5F).5s e6F,0.5,1.0,1.0
Co 1,4792.8598,-0.77,3.252367715308478,3.5,5.838496943045627,2.5,1.15,1.3,0.96,8.11,-5.41,-7.58,0.746,"_          Kurucz CoI 2008   12 wl:K08  12 gf:K08  12 K08  12 K08  12 K08  12 K08  12 K08  12 K08  12 K08   hfs:P,P Co",3p6.3d7.(4F).4s.4p.(3P*) z6G*,3p6.3d7.4s.(5F).5s e6F,0.5,1.0,1.0
Co 1,4792.8639,-0.934,3.252354038735639,3.5,5.83848100450509,2.5,1.15,1.3,0.96,8.11,-5.41,-7.58,0.746,"_          Kurucz CoI 2008   12 wl:K08  12 gf:K08  12 K08  12 K08  12 K08  12 K08  12 K08  12 K08  12 K08   hfs:P,P Co",3p6.3d7.(4F).4s.4p.(3P*) z6G*,3p6.3d7.4s.(5F).5s e6F,0.5,1.0,1.0
Co 1,4792.8668,-1.1320000000000001,3.2523427809705088,3.5,5.838468221734331,2.5,1.15,1.3,0.96,8.11,-5.41,-7.58,0.746,"_          Kurucz CoI 2008   12 wl:K08  12 gf:K08  12 K08  12 K08  12 K08  12 K08  12 K08  12 K08  12 K08   hfs:P,P Co",3p6.3d7.(4F).4s.4p.(3P*) z6G*,3p6.3d7.4s.(5F).5s e6F,0.5,1.0,1.0