species,wlcent,gflog,excit,j_lo,e_upp,j_up,lande_lower,lande_upper,lande,gamrad,gamqst,gamvw,depth,reference,term_lower,term_upper,error,atom_number,ionization
Pr 2,4876.2375,-1.9809999999999999,0.6333209361947565,7.0,3.175231093897696,6.0,0.91,1.12,0.28,0.0,0.0,0.0,0.14800000000000002,"_          Pr 2: DREAM data  52 wl:BLQS  52 gf:BLQS  52 BLQS  52 BLQS  52 BLQS  52 BLQS  52 BLQS  52 BLQS  52 BLQS   hfs:GINo,RIRS Pr+",4f3.(4I*).5d 5L*, ,0.5,1.0,2.0
Pr 2,4876.2483,-1.912,0.6333388395128712,7.0,3.1752433632498938,6.0,0.91,1.12,0.28,0.0,0.0,0.0,0.14800000000000002,"_          Pr 2: DREAM data  52 wl:BLQS  52 gf:BLQS  52 BLQS  52 BLQS  52 BLQS  52 BLQS  52 BLQS  52 BLQS  52 BLQS   hfs:GINo,RIRS Pr+",4f3.(4I*).5d 5L*, ,0.5,1.0,2.0
TiO 1,4876.2551,-0.736,0.4678893079003723,56.0,3.0098325667803687,57.0,99.0,99.0,99.0,7.306,0.0,0.0,0.004,_          0.0809990          2 wl:PPN2012   2 gf:PPN2012   2 PPN2012   2 PPN2012   2 PPN2012   2 PPN2012   2 PPN2012   2 PPN2012   2 PPN2012    (47)TiO,"8s2.9s1.3p4.1d1 X,3,2,0,56,2","8s2.11s1.3p4.1d1 C,3,2,0,57,4",0.5,1.0,1.0
TiO 1,4876.2586,0.5539999999999999,0.5964572383462293,85.0,3.1383654964872796,86.0,99.0,99.0,99.0,7.282,0.0,0.0,0.047,_          0.0173690          6 wl:PPN2012   6 gf:PPN2012   6 PPN2012   6 PPN2012   6 PPN2012   6 PPN2012   6 PPN2012   6 PPN2012   6 PPN2012    (48)TiO,"8s2.9s1.3p4.1d1 X,3,2,0,84,1","8s2.11s1.3p4.1d1 C,3,2,0,85,3",0.5,1.0,1.0
Pr 2,4876.2602,-1.844,0.6333594971399326,7.0,3.175257863325772,6.0,0.91,1.12,0.28,0.0,0.0,0.0,0.14800000000000002,"_          Pr 2: DREAM data  52 wl:BLQS  52 gf:BLQS  52 BLQS  52 BLQS  52 BLQS  52 BLQS  52 BLQS  52 BLQS  52 BLQS   hfs:GINo,RIRS Pr+",4f3.(4I*).5d 5L*, ,0.5,1.0,2.0
TiO 1,4876.2634,-0.603,0.5961010565437371,84.0,3.138067934413351,85.0,99.0,99.0,99.0,7.2829999999999995,0.0,0.0,0.003,_          0.134533           4 wl:PPN2012   4 gf:PPN2012   4 PPN2012   4 PPN2012   4 PPN2012   4 PPN2012   4 PPN2012   4 PPN2012   4 PPN2012    (50)TiO,"8s2.9s1.3p4.1d1 X,3,2,0,84,1","8s2.11s1.3p4.1d1 C,3,2,0,85,3",0.5,1.0,1.0
MgH 1,4876.2649,-1.306,0.6452753837806849,21.5,3.187171255900408,22.5,99.0,99.0,99.0,7.06,0.0,0.0,0.017,_                            18 wl:KMGH  18 gf:KMGH  18 KMGH  18 KMGH  18 KMGH  18 KMGH  18 KMGH  18 KMGH  18 KMGH    (24)MgH,"4s2.5s1 X,2,0,e,21,2","4s1.5s2/4s2.7s1/4s2.6s1 B,2,0,e,22,3",0.5,1.0,1.0
MgH 1,4876.2649,-1.3259999999999998,0.6452753837806849,20.5,3.187171255900408,21.5,99.0,99.0,99.0,7.06,0.0,0.0,0.016,_                            18 wl:KMGH  18 gf:KMGH  18 KMGH  18 KMGH  18 KMGH  18 KMGH  18 KMGH  18 KMGH  18 KMGH    (24)MgH,"4s2.5s1 X,2,0,f,21,2","4s1.5s2/4s2.7s1/4s2.6s1 B,2,0,f,22,3",0.5,1.0,1.0
Pr 2,4876.273,-1.778,0.6333829091999249,7.0,3.175274594125331,6.0,0.91,1.12,0.28,0.0,0.0,0.0,0.14800000000000002,"_          Pr 2: DREAM data  52 wl:BLQS  52 gf:BLQS  52 BLQS  52 BLQS  52 BLQS  52 BLQS  52 BLQS  52 BLQS  52 BLQS   hfs:GINo,RIRS Pr+",4f3.(4I*).5d 5L*, ,0.5,1.0,2.0
TiO 1,4876.2806,-0.708,0.42716072220299095,65.0,2.969090739570697,64.0,99.0,99.0,99.0,7.3020000000000005,0.0,0.0,0.005,_          0.0810789          4 wl:PPN2012   4 gf:PPN2012   4 PPN2012   4 PPN2012   4 PPN2012   4 PPN2012   4 PPN2012   4 PPN2012   4 PPN2012    (50)TiO,"8s2.9s1.3p4.1d1 X,3,2,0,66,1","8s2.11s1.3p4.1d1 C,3,2,0,65,3",0.5,1.0,1.0
Pr 2,4876.2868,-1.713,0.6334090755688643,7.0,3.1752935557725555,6.0,0.91,1.12,0.28,0.0,0.0,0.0,0.14800000000000002,"_          Pr 2: DREAM data  52 wl:BLQS  52 gf:BLQS  52 BLQS  52 BLQS  52 BLQS  52 BLQS  52 BLQS  52 BLQS  52 BLQS   hfs:GINo,RIRS Pr+",4f3.(4I*).5d 5L*, ,0.5,1.0,2.0
TiO 1,4876.289,-0.907,0.7228381619392319,51.0,3.2647215116550106,50.0,99.0,99.0,99.0,7.394,0.0,0.0,0.001,_                             4 wl:PPN2012   4 gf:PPN2012   4 PPN2012   4 PPN2012   4 PPN2012   4 PPN2012   4 PPN2012   4 PPN2012   4 PPN2012    (50)TiO,"8s2.9s1.3p4.1d1 a,1,2,0,51,1","8s2.11s1.3p4.1d1 f,1,2,0,50,3",0.5,1.0,1.0
Sr 1,4876.312,-0.09,1.847184145297577,2.0,4.3890536087832395,1.0,99.0,99.0,99.0,0.0,0.0,0.0,0.584,_          Sr 1 (GC+NIST)    62 wl:GC  62 gf:GC  62 GC  62 GC  17 CB  17 CB  17 CB  17 CB  62 GC    Sr,5s.5p 3P*,5p2 3P,0.5,1.0,1.0
Ti 1,4876.3218,-3.49,2.7778335844426616,3.0,5.319699824339189,3.0,1.0,1.39,1.19,7.77,-6.26,-7.53,0.004,_          Kurucz TiI 2016   22 wl:K16  22 gf:K16  22 K16  22 K16  22 K16  22 K16  22 K16  22 K16  22 K16    Ti,3d2.(3F).4s.4p.(3P*) z1F*,3d2.4s.(4F).4d 3D,0.5,1.0,1.0
TiO 1,4876.3227,-0.608,0.6010854196567522,83.0,3.142985271669214,84.0,99.0,99.0,99.0,7.2829999999999995,0.0,0.0,0.003,_          0.0651816          4 wl:PPN2012   4 gf:PPN2012   4 PPN2012   4 PPN2012   4 PPN2012   4 PPN2012   4 PPN2012   4 PPN2012   4 PPN2012    (50)TiO,"8s2.9s1.3p4.1d1 X,3,2,0,84,1","8s2.11s1.3p4.1d1 C,3,2,0,85,3",0.5,1.0,1.0
TiO 1,4876.3228,-0.606,0.7357268895935599,104.0,3.277720014917779,105.0,99.0,99.0,99.0,7.2589999999999995,0.0,0.0,0.002,_          0.244504           4 wl:PPN2012   4 gf:PPN2012   4 PPN2012   4 PPN2012   4 PPN2012   4 PPN2012   4 PPN2012   4 PPN2012   4 PPN2012    (50)TiO,"8s2.9s1.3p4.1d1 X,3,2,0,105,0","8s2.11s1.3p4.1d1 C,3,2,0,106,2",0.5,1.0,1.0
TiO 1,4876.326,0.11699999999999999,1.2800101270292492,68.0,3.8218741352102223,68.0,99.0,99.0,99.0,7.561,0.0,0.0,0.001,_                             6 wl:PPN2012   6 gf:PPN2012   6 PPN2012   6 PPN2012   6 PPN2012   6 PPN2012   6 PPN2012   6 PPN2012   6 PPN2012    (48)TiO,"8s2.9s1.3p4.1d1 X,3,2,-,69,8","8s2.3p4.4p1.1d1 B,3,1,+,69,11",0.5,1.0,1.0
TiO 1,4876.3434,-0.677,0.41735006343031544,67.0,2.959262388253043,66.0,99.0,99.0,99.0,7.301,0.0,0.0,0.006,_          0.110150           8 wl:PPN2012   8 gf:PPN2012   8 PPN2012   8 PPN2012   8 PPN2012   8 PPN2012   8 PPN2012   8 PPN2012   8 PPN2012    (49)TiO,"8s2.9s1.3p4.1d1 X,3,2,0,66,1","8s2.11s1.3p4.1d1 C,3,2,0,65,3",0.5,1.0,1.0
TiO 1,4876.3478,-0.539,0.4353992241564859,67.0,2.9773319691765368,66.0,99.0,99.0,99.0,7.301,0.0,0.0,0.006999999999999999,_          0.153450           2 wl:PPN2012   2 gf:PPN2012   2 PPN2012   2 PPN2012   2 PPN2012   2 PPN2012   2 PPN2012   2 PPN2012   2 PPN2012    (47)TiO,"8s2.9s1.3p4.1d1 X,3,2,0,67,1","8s2.11s1.3p4.1d1 C,3,2,0,66,3",0.5,1.0,1.0
TiO 1,4876.351,0.551,0.7387232156938205,105.0,3.280584669800326,106.0,99.0,99.0,99.0,7.257000000000001,0.0,0.0,0.027000000000000003,_          0.0198874          6 wl:PPN2012   6 gf:PPN2012   6 PPN2012   6 PPN2012   6 PPN2012   6 PPN2012   6 PPN2012   6 PPN2012   6 PPN2012    (48)TiO,"8s2.9s1.3p4.1d1 X,3,2,0,105,0","8s2.11s1.3p4.1d1 C,3,2,0,106,2",0.5,1.0,1.0
TiO 1,4876.3527,0.073,1.224028608609661,106.0,3.7658787801541966,106.0,99.0,99.0,99.0,7.3629999999999995,0.0,0.0,0.001,_                             6 wl:PPN2012   6 gf:PPN2012   6 PPN2012   6 PPN2012   6 PPN2012   6 PPN2012   6 PPN2012   6 PPN2012   6 PPN2012    (48)TiO,"8s2.9s1.3p4.1d1 X,3,2,-,106,4","8s2.3p4.4p1.1d1 B,3,1,+,106,7",0.5,1.0,1.0
TiO 1,4876.3672,-0.621,0.7576109807348396,48.0,3.29945357684491,48.0,99.0,99.0,99.0,7.388,0.0,0.0,0.002,_                             6 wl:PPN2012   6 gf:PPN2012   6 PPN2012   6 PPN2012   6 PPN2012   6 PPN2012   6 PPN2012   6 PPN2012   6 PPN2012    (48)TiO,"8s2.9s1.3p4.1d1 X,3,2,+,47,5","8s2.3p4.4p1.1d1 B,3,1,-,47,9",0.5,1.0,1.0
TiO 1,4876.3686,0.348,1.3426367768869651,143.0,3.884229259675479,142.0,99.0,99.0,99.0,7.193,0.0,0.0,0.002,_          -0.478612          6 wl:PPN2012   6 gf:PPN2012   6 PPN2012   6 PPN2012   6 PPN2012   6 PPN2012   6 PPN2012   6 PPN2012   6 PPN2012    (48)TiO,"8s2.9s1.3p4.1d1 X,3,2,0,143,0","8s2.11s1.3p4.1d1 C,3,2,0,142,3",0.5,1.0,1.0
TiO 1,4876.3764,-0.818,0.7059873084816102,56.0,3.247825193192176,56.0,99.0,99.0,99.0,7.334,0.0,0.0,0.001,_                             6 wl:PPN2012   6 gf:PPN2012   6 PPN2012   6 PPN2012   6 PPN2012   6 PPN2012   6 PPN2012   6 PPN2012   6 PPN2012    (48)TiO,"8s2.9s1.3p4.1d1 X,3,2,+,56,4","8s2.3p4.4p1.1d1 B,3,1,-,56,8",0.5,1.0,1.0
TiO 1,4876.3859,-0.5,0.44310706134638905,66.0,2.984981670176246,65.0,99.0,99.0,99.0,7.3020000000000005,0.0,0.0,0.006999999999999999,_          0.0800669          3 wl:PPN2012   3 gf:PPN2012   3 PPN2012   3 PPN2012   3 PPN2012   3 PPN2012   3 PPN2012   3 PPN2012   3 PPN2012    (46)TiO,"8s2.9s1.3p4.1d1 X,3,2,0,67,1","8s2.11s1.3p4.1d1 C,3,2,0,66,3",0.5,1.0,1.0
V 1,4876.3985,-3.6519999999999997,2.1145455573734395,2.5,4.656371792652796,3.5,0.59,1.02,1.56,7.89,-6.08,-7.77,0.01,"_          Kurucz V I 2009   19 wl:K09  19 gf:K09  19 K09  19 K09  19 K09  19 K09  19 K09  19 K09  19 K09   hfs:UBDE,GYDE V",3d4.(3G).4s a4G,3d4.(a3F).4p v4G*,0.5,1.0,1.0
Cr 2,4876.399,-1.46,3.853793370912117,1.5,6.395619439928665,1.5,0.42,0.41,0.41,8.37,-6.51,-7.848,0.38,"_          Cr 2, Cr 3 (VALD  41 wl:SLd  41 gf:SLd  41 SLd  41 SLd  42 K16  42 K16  42 K16  25 BA-J  41 SLd    Cr+",3d4.(a3F).4s a4F,3d4.(a5D).4p z4F*,0.5,1.0,2.0
Cr 1,4876.4034,-2.483,4.096434040902882,2.0,6.638257754219679,2.0,0.72,1.5,1.11,7.72,-4.65,-7.49,0.011000000000000001,_          Kurucz Cr I 2016  10 wl:K16  10 gf:K16  10 K16  10 K16  10 K16  10 K16  10 K16  10 K16  10 K16    Cr,3d5.(2F1).4s b3F,3d4.(5D).4s.5p s5D*,0.5,1.0,1.0
TiO 1,4876.4087,0.45899999999999996,1.063669530536316,104.0,3.6054665376569766,103.0,99.0,99.0,99.0,7.252999999999999,0.0,0.0,0.006,_          -0.0461111         6 wl:PPN2012   6 gf:PPN2012   6 PPN2012   6 PPN2012   6 PPN2012   6 PPN2012   6 PPN2012   6 PPN2012   6 PPN2012    (48)TiO,"8s2.9s1.3p4.1d1 X,3,2,0,103,3","8s2.11s1.3p4.1d1 C,3,2,0,102,6",0.5,1.0,1.0
Cr 2,4876.41,-1.46,3.8644634509463964,3.5,6.406263483281475,2.5,99.0,99.0,99.0,0.0,0.0,0.0,0.375,ND         Cr: NBS data.     26 wl:MFW  26 gf:MFW  26 MFW  26 MFW  26 MFW  26 MFW  26 MFW  26 MFW  26 MFW    Cr+,- a4F,- z4F*,0.5,1.0,2.0
TiO 1,4876.4141,-0.15,1.0383197463184133,82.0,3.5801379299400016,83.0,99.0,99.0,99.0,7.27,0.0,0.0,0.002,_                             6 wl:PPN2012   6 gf:PPN2012   6 PPN2012   6 PPN2012   6 PPN2012   6 PPN2012   6 PPN2012   6 PPN2012   6 PPN2012    (48)TiO,"8s2.9s1.3p4.1d1 X,3,2,0,81,5","8s2.11s1.3p4.1d1 C,3,2,0,82,8",0.5,1.0,1.0
V 1,4876.4164,-3.793,2.114545537535968,2.5,4.656362470900909,3.5,0.59,1.02,1.56,7.89,-6.08,-7.77,0.01,"_          Kurucz V I 2009   19 wl:K09  19 gf:K09  19 K09  19 K09  19 K09  19 K09  19 K09  19 K09  19 K09   hfs:UBDE,GYDE V",3d4.(3G).4s a4G,3d4.(a3F).4p v4G*,0.5,1.0,1.0
V 1,4876.4164,-4.492,2.1145455573734395,2.5,4.656362470900909,3.5,0.59,1.02,1.56,7.89,-6.08,-7.77,0.01,"_          Kurucz V I 2009   19 wl:K09  19 gf:K09  19 K09  19 K09  19 K09  19 K09  19 K09  19 K09  19 K09   hfs:UBDE,GYDE V",3d4.(3G).4s a4G,3d4.(a3F).4p v4G*,0.5,1.0,1.0
TiO 1,4876.4223,-1.063,0.3477527244287552,37.0,2.889537395121767,36.0,99.0,99.0,99.0,7.318,0.0,0.0,0.003,_          -0.0559575         4 wl:PPN2012   4 gf:PPN2012   4 PPN2012   4 PPN2012   4 PPN2012   4 PPN2012   4 PPN2012   4 PPN2012   4 PPN2012    (50)TiO,"8s2.9s1.3p4.1d1 X,3,2,0,37,2","8s2.11s1.3p4.1d1 C,3,2,0,36,4",0.5,1.0,1.0
TiO 1,4876.427,0.469,0.5089026729009227,88.0,3.050698626155905,87.0,99.0,99.0,99.0,7.282,0.0,0.0,0.054000000000000006,_          -0.0298065         6 wl:PPN2012   6 gf:PPN2012   6 PPN2012   6 PPN2012   6 PPN2012   6 PPN2012   6 PPN2012   6 PPN2012   6 PPN2012    (48)TiO,"8s2.9s1.3p4.1d1 X,3,2,0,87,0","8s2.11s1.3p4.1d1 C,3,2,0,86,2",0.5,1.0,1.0
V 1,4876.4317,-3.957,2.1145455210460695,2.5,4.656354480739303,3.5,0.59,1.02,1.56,7.89,-6.08,-7.77,0.01,"_          Kurucz V I 2009   19 wl:K09  19 gf:K09  19 K09  19 K09  19 K09  19 K09  19 K09  19 K09  19 K09   hfs:UBDE,GYDE V",3d4.(3G).4s a4G,3d4.(a3F).4p v4G*,0.5,1.0,1.0
V 1,4876.4317,-4.296,2.114545537535968,2.5,4.656354480739303,3.5,0.59,1.02,1.56,7.89,-6.08,-7.77,0.01,"_          Kurucz V I 2009   19 wl:K09  19 gf:K09  19 K09  19 K09  19 K09  19 K09  19 K09  19 K09  19 K09   hfs:UBDE,GYDE V",3d4.(3G).4s a4G,3d4.(a3F).4p v4G*,0.5,1.0,1.0
V 1,4876.4317,-5.606,2.1145455573734395,2.5,4.656354480739303,3.5,0.59,1.02,1.56,7.89,-6.08,-7.77,0.01,"_          Kurucz V I 2009   19 wl:K09  19 gf:K09  19 K09  19 K09  19 K09  19 K09  19 K09  19 K09  19 K09   hfs:UBDE,GYDE V",3d4.(3G).4s a4G,3d4.(a3F).4p v4G*,0.5,1.0,1.0
V 1,4876.4444,-4.155,2.1145455077797606,2.5,4.656347822415947,3.5,0.59,1.02,1.56,7.89,-6.08,-7.77,0.01,"_          Kurucz V I 2009   19 wl:K09  19 gf:K09  19 K09  19 K09  19 K09  19 K09  19 K09  19 K09  19 K09   hfs:UBDE,GYDE V",3d4.(3G).4s a4G,3d4.(a3F).4p v4G*,0.5,1.0,1.0
V 1,4876.4445,-4.242,2.1145455210460695,2.5,4.656347822415947,3.5,0.59,1.02,1.56,7.89,-6.08,-7.77,0.01,"_          Kurucz V I 2009   19 wl:K09  19 gf:K09  19 K09  19 K09  19 K09  19 K09  19 K09  19 K09  19 K09   hfs:UBDE,GYDE V",3d4.(3G).4s a4G,3d4.(a3F).4p v4G*,0.5,1.0,1.0
V 1,4876.4445,-5.196000000000001,2.114545537535968,2.5,4.656347822415947,3.5,0.59,1.02,1.56,7.89,-6.08,-7.77,0.01,"_          Kurucz V I 2009   19 wl:K09  19 gf:K09  19 K09  19 K09  19 K09  19 K09  19 K09  19 K09  19 K09   hfs:UBDE,GYDE V",3d4.(3G).4s a4G,3d4.(a3F).4p v4G*,0.5,1.0,1.0
TiO 1,4876.4486,-0.818,0.7059873084816102,56.0,3.2477875019961453,56.0,99.0,99.0,99.0,7.334,0.0,0.0,0.001,_                             6 wl:PPN2012   6 gf:PPN2012   6 PPN2012   6 PPN2012   6 PPN2012   6 PPN2012   6 PPN2012   6 PPN2012   6 PPN2012    (48)TiO,"8s2.9s1.3p4.1d1 X,3,2,-,56,4","8s2.3p4.4p1.1d1 B,3,1,+,56,8",0.5,1.0,1.0
V 1,4876.4546,-4.41,2.1145454978610245,2.5,4.65634249568287,3.5,0.59,1.02,1.56,7.89,-6.08,-7.77,0.01,"_          Kurucz V I 2009   19 wl:K09  19 gf:K09  19 K09  19 K09  19 K09  19 K09  19 K09  19 K09  19 K09   hfs:UBDE,GYDE V",3d4.(3G).4s a4G,3d4.(a3F).4p v4G*,0.5,1.0,1.0
V 1,4876.4546,-4.263999999999999,2.1145455077797606,2.5,4.65634249568287,3.5,0.59,1.02,1.56,7.89,-6.08,-7.77,0.01,"_          Kurucz V I 2009   19 wl:K09  19 gf:K09  19 K09  19 K09  19 K09  19 K09  19 K09  19 K09  19 K09   hfs:UBDE,GYDE V",3d4.(3G).4s a4G,3d4.(a3F).4p v4G*,0.5,1.0,1.0
V 1,4876.4547,-4.974,2.1145455210460695,2.5,4.65634249568287,3.5,0.59,1.02,1.56,7.89,-6.08,-7.77,0.01,"_          Kurucz V I 2009   19 wl:K09  19 gf:K09  19 K09  19 K09  19 K09  19 K09  19 K09  19 K09  19 K09   hfs:UBDE,GYDE V",3d4.(3G).4s a4G,3d4.(a3F).4p v4G*,0.5,1.0,1.0
V 1,4876.4623,-4.798,2.1145454912898622,2.5,4.656338500540076,3.5,0.59,1.02,1.56,7.89,-6.08,-7.77,0.01,"_          Kurucz V I 2009   19 wl:K09  19 gf:K09  19 K09  19 K09  19 K09  19 K09  19 K09  19 K09  19 K09   hfs:UBDE,GYDE V",3d4.(3G).4s a4G,3d4.(a3F).4p v4G*,0.5,1.0,1.0
V 1,4876.4623,-4.355,2.1145454978610245,2.5,4.656338500540076,3.5,0.59,1.02,1.56,7.89,-6.08,-7.77,0.01,"_          Kurucz V I 2009   19 wl:K09  19 gf:K09  19 K09  19 K09  19 K09  19 K09  19 K09  19 K09  19 K09   hfs:UBDE,GYDE V",3d4.(3G).4s a4G,3d4.(a3F).4p v4G*,0.5,1.0,1.0
V 1,4876.4623,-4.849,2.1145455077797606,2.5,4.656338500540076,3.5,0.59,1.02,1.56,7.89,-6.08,-7.77,0.01,"_          Kurucz V I 2009   19 wl:K09  19 gf:K09  19 K09  19 K09  19 K09  19 K09  19 K09  19 K09  19 K09   hfs:UBDE,GYDE V",3d4.(3G).4s a4G,3d4.(a3F).4p v4G*,0.5,1.0,1.0
V 1,4876.4674,-4.543,2.1145454912898622,2.5,4.656335837235529,3.5,0.59,1.02,1.56,7.89,-6.08,-7.77,0.01,"_          Kurucz V I 2009   19 wl:K09  19 gf:K09  19 K09  19 K09  19 K09  19 K09  19 K09  19 K09  19 K09   hfs:UBDE,GYDE V",3d4.(3G).4s a4G,3d4.(a3F).4p v4G*,0.5,1.0,1.0
V 1,4876.4674,-4.798,2.1145454978610245,2.5,4.656335837235529,3.5,0.59,1.02,1.56,7.89,-6.08,-7.77,0.01,"_          Kurucz V I 2009   19 wl:K09  19 gf:K09  19 K09  19 K09  19 K09  19 K09  19 K09  19 K09  19 K09   hfs:UBDE,GYDE V",3d4.(3G).4s a4G,3d4.(a3F).4p v4G*,0.5,1.0,1.0
TiO 1,4876.4699,0.249,0.7759553974288653,39.0,3.3177444695608878,40.0,99.0,99.0,99.0,7.391,0.0,0.0,0.012,_                             6 wl:PPN2012   6 gf:PPN2012   6 PPN2012   6 PPN2012   6 PPN2012   6 PPN2012   6 PPN2012   6 PPN2012   6 PPN2012    (48)TiO,"8s2.9s1.3p4.1d1 a,1,2,0,39,2","8s2.11s1.3p4.1d1 f,1,2,0,40,4",0.5,1.0,1.0
V 1,4876.4699,-4.828,2.1145454912898622,2.5,4.656334505521264,3.5,0.59,1.02,1.56,7.89,-6.08,-7.77,0.01,"_          Kurucz V I 2009   19 wl:K09  19 gf:K09  19 K09  19 K09  19 K09  19 K09  19 K09  19 K09  19 K09   hfs:UBDE,GYDE V",3d4.(3G).4s a4G,3d4.(a3F).4p v4G*,0.5,1.0,1.0
Cr 2,4876.473,-1.94,3.864411377583459,3.5,6.406199011498791,2.5,1.25,1.03,1.52,8.37,-6.5,-7.847,0.222,"_          Cr 2, Cr 3 (VALD  41 wl:SLd  41 gf:SLd  41 SLd  41 SLd  42 K16  42 K16  42 K16  25 BA-J  41 SLd    Cr+",3d4.(a3F).4s a4F,3d4.(a5D).4p z4F*,0.5,1.0,2.0
TiO 1,4876.4896,-0.67,0.7946597774434062,42.0,3.336438558887038,43.0,99.0,99.0,99.0,7.39,0.0,0.0,0.001,_                             3 wl:PPN2012   3 gf:PPN2012   3 PPN2012   3 PPN2012   3 PPN2012   3 PPN2012   3 PPN2012   3 PPN2012   3 PPN2012    (46)TiO,"8s2.9s1.3p4.1d1 a,1,2,0,42,2","8s2.11s1.3p4.1d1 f,1,2,0,43,4",0.5,1.0,1.0
TiO 1,4876.5213,-0.914,0.455206517998042,53.0,2.996986812048884,54.0,99.0,99.0,99.0,7.308,0.0,0.0,0.003,_          0.0345761          4 wl:PPN2012   4 gf:PPN2012   4 PPN2012   4 PPN2012   4 PPN2012   4 PPN2012   4 PPN2012   4 PPN2012   4 PPN2012    (50)TiO,"8s2.9s1.3p4.1d1 X,3,2,0,54,2","8s2.11s1.3p4.1d1 C,3,2,0,55,4",0.5,1.0,1.0
TiO 1,4876.5349,0.10099999999999999,0.3548391528209381,38.0,2.8965686629444956,37.0,99.0,99.0,99.0,7.318,0.0,0.0,0.042,_          -0.0493158         6 wl:PPN2012   6 gf:PPN2012   6 PPN2012   6 PPN2012   6 PPN2012   6 PPN2012   6 PPN2012   6 PPN2012   6 PPN2012    (48)TiO,"8s2.9s1.3p4.1d1 X,3,2,0,38,2","8s2.11s1.3p4.1d1 C,3,2,0,37,4",0.5,1.0,1.0
TiO 1,4876.5526,0.593,1.297775326747954,135.0,3.832777057567351,134.0,99.0,99.0,99.0,7.207999999999999,0.0,0.0,0.004,_          -12.9740           6 wl:PPN2012   6 gf:PPN2012   6 PPN2012   6 PPN2012   6 PPN2012   6 PPN2012   6 PPN2012   6 PPN2012   6 PPN2012    (48)TiO,"8s2.9s1.3p4.1d1 X,3,2,0,134,1","8s2.11s1.3p4.1d1 C,3,2,0,133,4",0.5,1.0,1.0
TiO 1,4876.5585,-0.402,0.6229610922710235,84.0,3.1647366873207807,85.0,99.0,99.0,99.0,7.282,0.0,0.0,0.005,_          0.0627510          3 wl:PPN2012   3 gf:PPN2012   3 PPN2012   3 PPN2012   3 PPN2012   3 PPN2012   3 PPN2012   3 PPN2012   3 PPN2012    (46)TiO,"8s2.9s1.3p4.1d1 X,3,2,0,85,1","8s2.11s1.3p4.1d1 C,3,2,0,86,3",0.5,1.0,1.0
MgH 1,4876.5606,-2.388,0.6683826906157849,3.5,3.210124450378053,2.5,99.0,99.0,99.0,7.06,0.0,0.0,0.001,_                            18 wl:KMGH  18 gf:KMGH  18 KMGH  18 KMGH  18 KMGH  18 KMGH  18 KMGH  18 KMGH  18 KMGH    (24)MgH,"4s2.5s1 X,2,0,e,3,4","4s1.5s2/4s2.7s1/4s2.6s1 B,2,0,e,2,5",0.5,1.0,1.0
TiO 1,4876.5679,-0.397,0.6181004529886639,85.0,3.1599070068925292,86.0,99.0,99.0,99.0,7.282,0.0,0.0,0.005,_          0.131428           3 wl:PPN2012   3 gf:PPN2012   3 PPN2012   3 PPN2012   3 PPN2012   3 PPN2012   3 PPN2012   3 PPN2012   3 PPN2012    (46)TiO,"8s2.9s1.3p4.1d1 X,3,2,0,85,1","8s2.11s1.3p4.1d1 C,3,2,0,86,3",0.5,1.0,1.0
Al 1,4876.5782,-3.58,3.1427181384169502,0.5,5.684450668051654,1.5,99.0,99.0,99.0,0.0,0.0,0.0,0.33,"_          Al 1 Kurucz NLTE  53 wl:K75  53 gf:K75  53 K75  53 K75  53 K75  53 K75  53 K75  53 K75  53 K75   hfs:JLS,JKLS Al",3s2.4s 2S,3s2.8p 2P*,0.5,1.0,1.0
Al 1,4876.5782,-3.483,3.1427181384169502,0.5,5.684450642386924,1.5,99.0,99.0,99.0,0.0,0.0,0.0,0.33,"_          Al 1 Kurucz NLTE  53 wl:K75  53 gf:K75  53 K75  53 K75  53 K75  53 K75  53 K75  53 K75  53 K75   hfs:JLS,JKLS Al",3s2.4s 2S,3s2.8p 2P*,0.5,1.0,1.0
Al 1,4876.5782,-3.596,3.1427181384169502,0.5,5.684450625649057,1.5,99.0,99.0,99.0,0.0,0.0,0.0,0.33,"_          Al 1 Kurucz NLTE  53 wl:K75  53 gf:K75  53 K75  53 K75  53 K75  53 K75  53 K75  53 K75  53 K75   hfs:JLS,JKLS Al",3s2.4s 2S,3s2.8p 2P*,0.5,1.0,1.0
TiO 1,4876.5799,0.24600000000000002,0.46538570739927776,54.0,3.0071356625169985,55.0,99.0,99.0,99.0,7.307,0.0,0.0,0.038,_          0.0349432          6 wl:PPN2012   6 gf:PPN2012   6 PPN2012   6 PPN2012   6 PPN2012   6 PPN2012   6 PPN2012   6 PPN2012   6 PPN2012    (48)TiO,"8s2.9s1.3p4.1d1 X,3,2,0,55,2","8s2.11s1.3p4.1d1 C,3,2,0,56,4",0.5,1.0,1.0
Al 1,4876.5881,-3.1189999999999998,3.1427233617472052,0.5,5.684450703387149,1.5,99.0,99.0,99.0,0.0,0.0,0.0,0.33,"_          Al 1 Kurucz NLTE  53 wl:K75  53 gf:K75  53 K75  53 K75  53 K75  53 K75  53 K75  53 K75  53 K75   hfs:JLS,JKLS Al",3s2.4s 2S,3s2.8p 2P*,0.5,1.0,1.0