species,wlcent,gflog,excit,j_lo,e_upp,j_up,lande_lower,lande_upper,lande,gamrad,gamqst,gamvw,depth,reference,term_lower,term_upper,error,atom_number,ionization
Co 1,4792.8676,-1.775,3.252327232608241,3.5,5.838452203471954,2.5,1.15,1.3,0.96,8.11,-5.41,-7.58,0.746,"_          Kurucz CoI 2008   12 wl:K08  12 gf:K08  12 K08  12 K08  12 K08  12 K08  12 K08  12 K08  12 K08   hfs:P,P Co",3p6.3d7.(4F).4s.4p.(3P*) z6G*,3p6.3d7.4s.(5F).5s e6F,0.5,1.0,1.0
Co 1,4792.8681,-1.3869999999999998,3.252333865762805,3.5,5.838458616058633,2.5,1.15,1.3,0.96,8.11,-5.41,-7.58,0.746,"_          Kurucz CoI 2008   12 wl:K08  12 gf:K08  12 K08  12 K08  12 K08  12 K08  12 K08  12 K08  12 K08   hfs:P,P Co",3p6.3d7.(4F).4s.4p.(3P*) z6G*,3p6.3d7.4s.(5F).5s e6F,0.5,1.0,1.0
TiO 1,4792.8747,-0.852,0.22854887407470595,59.0,2.8146656939693098,60.0,99.0,99.0,99.0,7.307,0.0,0.0,0.006999999999999999,_          -0.00819492        4 wl:PPN2012   4 gf:PPN2012   4 PPN2012   4 PPN2012   4 PPN2012   4 PPN2012   4 PPN2012   4 PPN2012   4 PPN2012    (50)TiO,"8s2.9s1.3p4.1d1 X,3,2,0,58,0","8s2.11s1.3p4.1d1 C,3,2,0,59,2",0.5,1.0,1.0
Cr 1,4792.8906,-4.051,3.434830186283777,4.0,6.020942790715666,4.0,1.05,1.01,1.03,6.99,-6.19,-7.79,0.003,_          Kurucz Cr I 2016  10 wl:K16  10 gf:K16  10 K16  10 K16  10 K16  10 K16  10 K16  10 K16  10 K16    Cr,3d4.4s2 b3G,x3G* x3G*,0.5,1.0,1.0
MgH 1,4792.9083,-1.181,0.19021469599570717,15.5,2.7763177536443915,15.5,99.0,99.0,99.0,7.39,0.0,0.0,0.1,_                            18 wl:KMGH  18 gf:KMGH  18 KMGH  18 KMGH  18 KMGH  18 KMGH  18 KMGH  18 KMGH  18 KMGH    (24)MgH,"4s2.5s1 X,2,0,f,16,0","4s2.2p1 A,2,1,e,16,1",0.5,1.0,1.0
V 1,4792.9121,-2.3890000000000002,2.358952066841369,2.5,4.945053050358413,1.5,0.86,0.92,0.81,7.91,-5.62,-7.73,0.47,"_          Kurucz V I 2009   19 wl:K09  19 gf:K09  19 K09  19 K09  19 K09  19 K09  19 K09  19 K09  19 K09   hfs:UBDE,GYDE V",3d4.(3F2).4s a2F,3d4.(a3P).4p v2D*,0.5,1.0,1.0
V 1,4792.9122,-2.1390000000000002,2.3589462232181737,2.5,4.945047177722916,1.5,0.86,0.92,0.81,7.91,-5.62,-7.73,0.47,"_          Kurucz V I 2009   19 wl:K09  19 gf:K09  19 K09  19 K09  19 K09  19 K09  19 K09  19 K09  19 K09   hfs:UBDE,GYDE V",3d4.(3F2).4s a2F,3d4.(a3P).4p v2D*,0.5,1.0,1.0
V 1,4792.9129,-2.8169999999999997,2.3589598623477848,2.5,4.945060391214777,1.5,0.86,0.92,0.81,7.91,-5.62,-7.73,0.47,"_          Kurucz V I 2009   19 wl:K09  19 gf:K09  19 K09  19 K09  19 K09  19 K09  19 K09  19 K09  19 K09   hfs:UBDE,GYDE V",3d4.(3F2).4s a2F,3d4.(a3P).4p v2D*,0.5,1.0,1.0
V 1,4792.9131,-1.963,2.358942328874531,2.5,4.945042773308286,1.5,0.86,0.92,0.81,7.91,-5.62,-7.73,0.47,"_          Kurucz V I 2009   19 wl:K09  19 gf:K09  19 K09  19 K09  19 K09  19 K09  19 K09  19 K09  19 K09   hfs:UBDE,GYDE V",3d4.(3F2).4s a2F,3d4.(a3P).4p v2D*,0.5,1.0,1.0
TiO 1,4792.914,0.127,0.7360122764192967,60.0,3.322112308853563,61.0,99.0,99.0,99.0,7.292999999999999,0.0,0.0,0.01,_                             6 wl:PPN2012   6 gf:PPN2012   6 PPN2012   6 PPN2012   6 PPN2012   6 PPN2012   6 PPN2012   6 PPN2012   6 PPN2012    (48)TiO,"8s2.9s1.3p4.1d1 X,3,2,0,60,4","8s2.11s1.3p4.1d1 C,3,2,0,61,7",0.5,1.0,1.0
V 1,4792.9203,-1.963,2.3589462232181737,2.5,4.945042773308286,1.5,0.86,0.92,0.81,7.91,-5.62,-7.73,0.47,"_          Kurucz V I 2009   19 wl:K09  19 gf:K09  19 K09  19 K09  19 K09  19 K09  19 K09  19 K09  19 K09   hfs:UBDE,GYDE V",3d4.(3F2).4s a2F,3d4.(a3P).4p v2D*,0.5,1.0,1.0
V 1,4792.923,-1.7990000000000002,2.358952066841369,2.5,4.945047177722916,1.5,0.86,0.92,0.81,7.91,-5.62,-7.73,0.47,"_          Kurucz V I 2009   19 wl:K09  19 gf:K09  19 K09  19 K09  19 K09  19 K09  19 K09  19 K09  19 K09   hfs:UBDE,GYDE V",3d4.(3F2).4s a2F,3d4.(a3P).4p v2D*,0.5,1.0,1.0
Sc 1,4792.9239,-1.256,3.057043641445636,0.5,5.643138268168893,0.5,0.67,2.0,1.33,8.22,-4.81,-7.48,0.004,_          Kurucz ScI 2009   23 wl:K09  23 gf:K09  23 K09  23 K09  23 K09  23 K09  23 K09  23 K09  23 K09    Sc,3d.4s.(1D).4p 2P*,4s2.5s 2S,0.5,1.0,1.0
V 1,4792.9265,-1.791,2.3589598623477848,2.5,4.945053050358413,1.5,0.86,0.92,0.81,7.91,-5.62,-7.73,0.47,"_          Kurucz V I 2009   19 wl:K09  19 gf:K09  19 K09  19 K09  19 K09  19 K09  19 K09  19 K09  19 K09   hfs:UBDE,GYDE V",3d4.(3F2).4s a2F,3d4.(a3P).4p v2D*,0.5,1.0,1.0
V 1,4792.931,-1.952,2.358969613084995,2.5,4.945060391214777,1.5,0.86,0.92,0.81,7.91,-5.62,-7.73,0.47,"_          Kurucz V I 2009   19 wl:K09  19 gf:K09  19 K09  19 K09  19 K09  19 K09  19 K09  19 K09  19 K09   hfs:UBDE,GYDE V",3d4.(3F2).4s a2F,3d4.(a3P).4p v2D*,0.5,1.0,1.0
V 1,4792.9311,-2.2640000000000002,2.358952066841369,2.5,4.945042773308286,1.5,0.86,0.92,0.81,7.91,-5.62,-7.73,0.47,"_          Kurucz V I 2009   19 wl:K09  19 gf:K09  19 K09  19 K09  19 K09  19 K09  19 K09  19 K09  19 K09   hfs:UBDE,GYDE V",3d4.(3F2).4s a2F,3d4.(a3P).4p v2D*,0.5,1.0,1.0
V 1,4792.9374,-1.825,2.3589598623477848,2.5,4.945047177722916,1.5,0.86,0.92,0.81,7.91,-5.62,-7.73,0.47,"_          Kurucz V I 2009   19 wl:K09  19 gf:K09  19 K09  19 K09  19 K09  19 K09  19 K09  19 K09  19 K09   hfs:UBDE,GYDE V",3d4.(3F2).4s a2F,3d4.(a3P).4p v2D*,0.5,1.0,1.0
TiO 1,4792.9386,-0.47100000000000003,0.8637839803490007,63.0,3.449870709278878,63.0,99.0,99.0,99.0,7.422000000000001,0.0,0.0,0.001,_                             6 wl:PPN2012   6 gf:PPN2012   6 PPN2012   6 PPN2012   6 PPN2012   6 PPN2012   6 PPN2012   6 PPN2012   6 PPN2012    (48)TiO,"8s2.9s1.3p4.1d1 X,3,2,-,62,5","8s2.3p4.4p1.1d1 B,3,1,+,62,9",0.5,1.0,1.0
TiO 1,4792.9414,-0.529,0.8530004051803574,72.0,3.439085571909347,72.0,99.0,99.0,99.0,7.365,0.0,0.0,0.001,_                             6 wl:PPN2012   6 gf:PPN2012   6 PPN2012   6 PPN2012   6 PPN2012   6 PPN2012   6 PPN2012   6 PPN2012   6 PPN2012    (48)TiO,"8s2.9s1.3p4.1d1 X,3,2,+,73,4","8s2.3p4.4p1.1d1 B,3,1,-,73,8",0.5,1.0,1.0
Ce 2,4792.944,-1.75,1.21243973128161,2.5,3.7985233234112914,2.5,0.88,1.12,1.0,0.0,0.0,0.0,0.027000000000000003,E 0.06     Wisconsin REE ex  11 wl:LSCI  11 gf:LSCI  11 LSCI  11 LSCI  11 LSCI  11 LSCI  11 LSCI  11 LSCI  11 LSCI    Ce+,4f.(2F*).6s2 2F*,4f.5d.(3F*).6p 4f.5d.(3F*).6p,1.1481536214968828,1.0,2.0
V 1,4792.9446,-1.5419999999999998,2.358969613084995,2.5,4.945053050358413,1.5,0.86,0.92,0.81,7.91,-5.62,-7.73,0.47,"_          Kurucz V I 2009   19 wl:K09  19 gf:K09  19 K09  19 K09  19 K09  19 K09  19 K09  19 K09  19 K09   hfs:UBDE,GYDE V",3d4.(3F2).4s a2F,3d4.(a3P).4p v2D*,0.5,1.0,1.0
V 1,4792.9527,-1.3259999999999998,2.3589813235164296,2.5,4.945060391214777,1.5,0.86,0.92,0.81,7.91,-5.62,-7.73,0.47,"_          Kurucz V I 2009   19 wl:K09  19 gf:K09  19 K09  19 K09  19 K09  19 K09  19 K09  19 K09  19 K09   hfs:UBDE,GYDE V",3d4.(3F2).4s a2F,3d4.(a3P).4p v2D*,0.5,1.0,1.0
TiO 1,4792.9585,0.252,0.9721179377361279,121.0,3.55812751129992,120.0,99.0,99.0,99.0,7.234,0.0,0.0,0.005,_          -0.123125          6 wl:PPN2012   6 gf:PPN2012   6 PPN2012   6 PPN2012   6 PPN2012   6 PPN2012   6 PPN2012   6 PPN2012   6 PPN2012    (48)TiO,"8s2.9s1.3p4.1d1 X,3,2,0,121,0","8s2.11s1.3p4.1d1 C,3,2,0,120,3",0.5,1.0,1.0
TiO 1,4792.9597,0.308,0.25248099818189573,60.0,2.8385941481442543,61.0,99.0,99.0,99.0,7.307,0.0,0.0,0.096,_          0.0700596          6 wl:PPN2012   6 gf:PPN2012   6 PPN2012   6 PPN2012   6 PPN2012   6 PPN2012   6 PPN2012   6 PPN2012   6 PPN2012    (48)TiO,"8s2.9s1.3p4.1d1 X,3,2,0,60,0","8s2.11s1.3p4.1d1 C,3,2,0,61,2",0.5,1.0,1.0
Sc 1,4792.9607,-1.119,3.0570634789172315,1.5,5.643138268168893,0.5,1.31,2.0,1.14,8.24,-4.81,-7.48,0.005,_          Kurucz ScI 2009   23 wl:K09  23 gf:K09  23 K09  23 K09  23 K09  23 K09  23 K09  23 K09  23 K09    Sc,3d.4s.(1D).4p 2P*,4s2.5s 2S,0.5,1.0,1.0
TiO 1,4792.9664,-0.868,0.24092162909284234,57.0,2.827038696955841,58.0,99.0,99.0,99.0,7.308,0.0,0.0,0.006999999999999999,_          0.0840645          4 wl:PPN2012   4 gf:PPN2012   4 PPN2012   4 PPN2012   4 PPN2012   4 PPN2012   4 PPN2012   4 PPN2012   4 PPN2012    (50)TiO,"8s2.9s1.3p4.1d1 X,3,2,0,58,0","8s2.11s1.3p4.1d1 C,3,2,0,59,2",0.5,1.0,1.0
TiO 1,4792.979,0.14400000000000002,0.11785936571668322,42.0,2.7039485495336706,41.0,99.0,99.0,99.0,7.32,0.0,0.0,0.11,_          0.0449222          6 wl:PPN2012   6 gf:PPN2012   6 PPN2012   6 PPN2012   6 PPN2012   6 PPN2012   6 PPN2012   6 PPN2012   6 PPN2012    (48)TiO,"8s2.9s1.3p4.1d1 X,3,2,0,41,0","8s2.11s1.3p4.1d1 C,3,2,0,40,2",0.5,1.0,1.0
TiO 1,4792.9855,-0.7879999999999999,0.7077662089500721,71.0,3.2931389376835583,70.0,99.0,99.0,99.0,7.289,0.0,0.0,0.001,_          -1.27687           8 wl:PPN2012   8 gf:PPN2012   8 PPN2012   8 PPN2012   8 PPN2012   8 PPN2012   8 PPN2012   8 PPN2012   8 PPN2012    (49)TiO,"8s2.9s1.3p4.1d1 X,3,2,0,71,3","8s2.11s1.3p4.1d1 C,3,2,0,70,6",0.5,1.0,1.0
TiO 1,4792.9906,0.156,1.314375694931427,95.0,3.900434366237417,95.0,99.0,99.0,99.0,7.529,0.0,0.0,0.001,_                             6 wl:PPN2012   6 gf:PPN2012   6 PPN2012   6 PPN2012   6 PPN2012   6 PPN2012   6 PPN2012   6 PPN2012   6 PPN2012    (48)TiO,"8s2.9s1.3p4.1d1 X,3,2,+,95,6","8s2.3p4.4p1.1d1 B,3,1,-,95,9",0.5,1.0,1.0
TiO 1,4792.9924,0.35600000000000004,1.4311184713641139,114.0,4.017176150796524,115.0,99.0,99.0,99.0,7.227,0.0,0.0,0.001,_                             6 wl:PPN2012   6 gf:PPN2012   6 PPN2012   6 PPN2012   6 PPN2012   6 PPN2012   6 PPN2012   6 PPN2012   6 PPN2012    (48)TiO,"8s2.9s1.3p4.1d1 X,3,2,0,113,5","8s2.11s1.3p4.1d1 C,3,2,0,114,9",0.5,1.0,1.0
TiO 1,4792.9957,0.10400000000000001,1.1745133248296706,81.0,3.7605691568975383,80.0,99.0,99.0,99.0,7.2620000000000005,0.0,0.0,0.002,_                             6 wl:PPN2012   6 gf:PPN2012   6 PPN2012   6 PPN2012   6 PPN2012   6 PPN2012   6 PPN2012   6 PPN2012   6 PPN2012    (48)TiO,"8s2.9s1.3p4.1d1 X,3,2,0,82,6","8s2.11s1.3p4.1d1 C,3,2,0,81,10",0.5,1.0,1.0
TiO 1,4792.9994,0.121,0.7422556370655221,59.0,3.3283095349799097,60.0,99.0,99.0,99.0,7.292999999999999,0.0,0.0,0.01,_                             6 wl:PPN2012   6 gf:PPN2012   6 PPN2012   6 PPN2012   6 PPN2012   6 PPN2012   6 PPN2012   6 PPN2012   6 PPN2012    (48)TiO,"8s2.9s1.3p4.1d1 X,3,2,0,60,4","8s2.11s1.3p4.1d1 C,3,2,0,61,7",0.5,1.0,1.0
TiO 1,4793.0003,0.106,1.1693644346866126,82.0,3.7554178614610496,81.0,99.0,99.0,99.0,7.2620000000000005,0.0,0.0,0.002,_                             6 wl:PPN2012   6 gf:PPN2012   6 PPN2012   6 PPN2012   6 PPN2012   6 PPN2012   6 PPN2012   6 PPN2012   6 PPN2012    (48)TiO,"8s2.9s1.3p4.1d1 X,3,2,0,82,6","8s2.11s1.3p4.1d1 C,3,2,0,81,10",0.5,1.0,1.0
TiO 1,4793.0091,-0.8640000000000001,0.7325276261588803,61.0,3.318576279541715,62.0,99.0,99.0,99.0,7.292000000000001,0.0,0.0,0.001,_                             2 wl:PPN2012   2 gf:PPN2012   2 PPN2012   2 PPN2012   2 PPN2012   2 PPN2012   2 PPN2012   2 PPN2012   2 PPN2012    (47)TiO,"8s2.9s1.3p4.1d1 X,3,2,0,60,4","8s2.11s1.3p4.1d1 C,3,2,0,61,7",0.5,1.0,1.0
TiO 1,4793.0315,0.594,1.1732770164045971,120.0,3.7392200699667626,121.0,99.0,99.0,99.0,7.229,0.0,0.0,0.006,_          -37.5342           6 wl:PPN2012   6 gf:PPN2012   6 PPN2012   6 PPN2012   6 PPN2012   6 PPN2012   6 PPN2012   6 PPN2012   6 PPN2012    (48)TiO,"8s2.9s1.3p4.1d1 X,3,2,0,119,2","8s2.11s1.3p4.1d1 C,3,2,0,120,5",0.5,1.0,1.0
TiO 1,4793.041,-1.025,0.1265651269151839,39.0,2.7126487686385445,38.0,99.0,99.0,99.0,7.321000000000001,0.0,0.0,0.008,_          0.0967073          8 wl:PPN2012   8 gf:PPN2012   8 PPN2012   8 PPN2012   8 PPN2012   8 PPN2012   8 PPN2012   8 PPN2012   8 PPN2012    (49)TiO,"8s2.9s1.3p4.1d1 X,3,2,0,40,0","8s2.11s1.3p4.1d1 C,3,2,0,39,2",0.5,1.0,1.0
TiO 1,4793.0424,0.519,0.8564063874674789,97.0,3.4339470468451974,96.0,99.0,99.0,99.0,7.265,0.0,0.0,0.016,_          -15.7877           6 wl:PPN2012   6 gf:PPN2012   6 PPN2012   6 PPN2012   6 PPN2012   6 PPN2012   6 PPN2012   6 PPN2012   6 PPN2012    (48)TiO,"8s2.9s1.3p4.1d1 X,3,2,0,96,2","8s2.11s1.3p4.1d1 C,3,2,0,95,5",0.5,1.0,1.0
TiO 1,4793.0476,0.155,1.375246852537163,112.0,3.961274899746378,111.0,99.0,99.0,99.0,7.346,0.0,0.0,0.001,_                             6 wl:PPN2012   6 gf:PPN2012   6 PPN2012   6 PPN2012   6 PPN2012   6 PPN2012   6 PPN2012   6 PPN2012   6 PPN2012    (48)TiO,"8s2.9s1.3p4.1d1 a,1,2,0,112,1","8s2.11s1.3p4.1d1 f,1,2,0,111,4",0.5,1.0,1.0
TiO 1,4793.067,0.01,0.6153778220043186,44.0,3.201395342955168,43.0,99.0,99.0,99.0,7.303999999999999,0.0,0.0,0.013000000000000001,_                             6 wl:PPN2012   6 gf:PPN2012   6 PPN2012   6 PPN2012   6 PPN2012   6 PPN2012   6 PPN2012   6 PPN2012   6 PPN2012    (48)TiO,"8s2.9s1.3p4.1d1 X,3,2,0,43,4","8s2.11s1.3p4.1d1 C,3,2,0,42,7",0.5,1.0,1.0
TiO 1,4793.0684,-0.8190000000000001,0.13913605827455658,41.0,2.7252034084743695,40.0,99.0,99.0,99.0,7.32,0.0,0.0,0.012,_          0.0939760          3 wl:PPN2012   3 gf:PPN2012   3 PPN2012   3 PPN2012   3 PPN2012   3 PPN2012   3 PPN2012   3 PPN2012   3 PPN2012    (46)TiO,"8s2.9s1.3p4.1d1 X,3,2,0,42,0","8s2.11s1.3p4.1d1 C,3,2,0,41,2",0.5,1.0,1.0
MgH 1,4793.0778,-1.265,0.21596299022111837,6.5,2.80197454753207,6.5,99.0,99.0,99.0,7.39,0.0,0.0,0.078,_                            18 wl:KMGH  18 gf:KMGH  18 KMGH  18 KMGH  18 KMGH  18 KMGH  18 KMGH  18 KMGH  18 KMGH    (24)MgH,"4s2.5s1 X,2,0,f,7,1","4s2.2p1 A,2,1,e,7,2",0.5,1.0,1.0
MgH 1,4793.0985,-1.151,0.22691823390957883,8.5,2.812918632642758,8.5,99.0,99.0,99.0,7.39,0.0,0.0,0.096,_                            18 wl:KMGH  18 gf:KMGH  18 KMGH  18 KMGH  18 KMGH  18 KMGH  18 KMGH  18 KMGH  18 KMGH    (24)MgH,"4s2.5s1 X,2,0,e,8,1","4s2.2p1 A,2,1,f,8,2",0.5,1.0,1.0
TiO 1,4793.1039,-0.696,0.2598834250981707,59.0,2.845926201630045,60.0,99.0,99.0,99.0,7.307,0.0,0.0,0.01,_          0.0838395          2 wl:PPN2012   2 gf:PPN2012   2 PPN2012   2 PPN2012   2 PPN2012   2 PPN2012   2 PPN2012   2 PPN2012   2 PPN2012    (47)TiO,"8s2.9s1.3p4.1d1 X,3,2,0,60,0","8s2.11s1.3p4.1d1 C,3,2,0,61,2",0.5,1.0,1.0
TiO 1,4793.114,0.14300000000000002,0.13049411174249376,42.0,2.716533069561086,41.0,99.0,99.0,99.0,7.32,0.0,0.0,0.105,_          0.0869721          6 wl:PPN2012   6 gf:PPN2012   6 PPN2012   6 PPN2012   6 PPN2012   6 PPN2012   6 PPN2012   6 PPN2012   6 PPN2012    (48)TiO,"8s2.9s1.3p4.1d1 X,3,2,0,42,0","8s2.11s1.3p4.1d1 C,3,2,0,41,2",0.5,1.0,1.0
TiO 1,4793.1159,0.48700000000000004,0.8898619609539047,106.0,3.475665249609946,105.0,99.0,99.0,99.0,7.255,0.0,0.0,0.013000000000000001,_          -0.348100          6 wl:PPN2012   6 gf:PPN2012   6 PPN2012   6 PPN2012   6 PPN2012   6 PPN2012   6 PPN2012   6 PPN2012   6 PPN2012    (48)TiO,"8s2.9s1.3p4.1d1 X,3,2,0,107,1","8s2.11s1.3p4.1d1 C,3,2,0,106,4",0.5,1.0,1.0
Cr 2,4793.1162,-2.53,6.641368641718401,3.5,9.227359493668375,3.5,1.24,1.24,1.24,8.43,-6.41,-7.862,0.001,_          Kurucz CrII 2016   1 wl:K16   2 gf:RU   1 K16   1 K16   1 K16   1 K16   1 K16   3 BA-J   1 K16    Cr+,3d3.4s2 c4F,3d4.(3D).4p w4F*,0.5,1.0,2.0
TiO 1,4793.1206,-0.6809999999999999,0.24785367236233538,61.0,2.8338366265189308,62.0,99.0,99.0,99.0,7.306,0.0,0.0,0.01,_          -0.0102623         2 wl:PPN2012   2 gf:PPN2012   2 PPN2012   2 PPN2012   2 PPN2012   2 PPN2012   2 PPN2012   2 PPN2012   2 PPN2012    (47)TiO,"8s2.9s1.3p4.1d1 X,3,2,0,60,0","8s2.11s1.3p4.1d1 C,3,2,0,61,2",0.5,1.0,1.0
Ce 2,4793.1252,-0.7,1.4060549418613302,3.5,3.992040958427603,4.5,1.12,1.2,1.32,0.0,0.0,0.0,0.14,C 0.144    Ce 2: DREAM data  15 wl:PQWB  15 gf:PQWB  15 PQWB  15 PQWB  15 PQWB  15 PQWB  15 PQWB  15 PQWB  15 PQWB    Ce+,4f.(2F*).5d2.(3P) 4F*,4f2.(1I).5d 4f2.(1I).5d,0.144,1.0,2.0
TiO 1,4793.1281,0.336,1.1779027676248497,63.0,3.7638872219902337,62.0,99.0,99.0,99.0,7.361000000000001,0.0,0.0,0.003,_                             6 wl:PPN2012   6 gf:PPN2012   6 PPN2012   6 PPN2012   6 PPN2012   6 PPN2012   6 PPN2012   6 PPN2012   6 PPN2012    (48)TiO,"8s2.9s1.3p4.1d1 a,1,2,0,63,4","8s2.11s1.3p4.1d1 f,1,2,0,62,7",0.5,1.0,1.0
TiO 1,4793.1598,-0.853,0.2422819341138056,59.0,2.828287837745352,60.0,99.0,99.0,99.0,7.307,0.0,0.0,0.006999999999999999,_          0.0713890          4 wl:PPN2012   4 gf:PPN2012   4 PPN2012   4 PPN2012   4 PPN2012   4 PPN2012   4 PPN2012   4 PPN2012   4 PPN2012    (50)TiO,"8s2.9s1.3p4.1d1 X,3,2,0,59,0","8s2.11s1.3p4.1d1 C,3,2,0,60,2",0.5,1.0,1.0
TiO 1,4793.1678,0.34700000000000003,0.6957413783868763,71.0,3.2820165632969083,70.0,99.0,99.0,99.0,7.289,0.0,0.0,0.02,_          0.578517           6 wl:PPN2012   6 gf:PPN2012   6 PPN2012   6 PPN2012   6 PPN2012   6 PPN2012   6 PPN2012   6 PPN2012   6 PPN2012    (48)TiO,"8s2.9s1.3p4.1d1 X,3,2,0,70,3","8s2.11s1.3p4.1d1 C,3,2,0,69,6",0.5,1.0,1.0
TiO 1,4793.1689,-0.537,0.8534290805431104,86.0,3.441553601344187,87.0,99.0,99.0,99.0,7.273,0.0,0.0,0.001,_          4.00417            3 wl:PPN2012   3 gf:PPN2012   3 PPN2012   3 PPN2012   3 PPN2012   3 PPN2012   3 PPN2012   3 PPN2012   3 PPN2012    (46)TiO,"8s2.9s1.3p4.1d1 X,3,2,0,85,3","8s2.11s1.3p4.1d1 C,3,2,0,86,6",0.5,1.0,1.0
TiO 1,4793.1767,-0.569,0.911191582365678,90.0,3.4936728384347044,91.0,99.0,99.0,99.0,7.268,0.0,0.0,0.001,_          -6.45362           2 wl:PPN2012   2 gf:PPN2012   2 PPN2012   2 PPN2012   2 PPN2012   2 PPN2012   2 PPN2012   2 PPN2012   2 PPN2012    (47)TiO,"8s2.9s1.3p4.1d1 X,3,2,0,90,3","8s2.11s1.3p4.1d1 C,3,2,0,91,6",0.5,1.0,1.0
TiO 1,4793.2121,-0.397,1.0174983733273293,106.0,3.603067567420127,107.0,99.0,99.0,99.0,7.25,0.0,0.0,0.001,_          -0.685807          3 wl:PPN2012   3 gf:PPN2012   3 PPN2012   3 PPN2012   3 PPN2012   3 PPN2012   3 PPN2012   3 PPN2012   3 PPN2012    (46)TiO,"8s2.9s1.3p4.1d1 X,3,2,0,107,2","8s2.11s1.3p4.1d1 C,3,2,0,108,5",0.5,1.0,1.0
TiO 1,4793.2183,-0.46,0.8944359363732937,107.0,3.480279321518797,106.0,99.0,99.0,99.0,7.254,0.0,0.0,0.001,_          -0.171437          3 wl:PPN2012   3 gf:PPN2012   3 PPN2012   3 PPN2012   3 PPN2012   3 PPN2012   3 PPN2012   3 PPN2012   3 PPN2012    (46)TiO,"8s2.9s1.3p4.1d1 X,3,2,0,107,1","8s2.11s1.3p4.1d1 C,3,2,0,106,4",0.5,1.0,1.0
TiO 1,4793.2398,-1.0190000000000001,0.11126971720692368,41.0,2.6972200511211644,40.0,99.0,99.0,99.0,7.32,0.0,0.0,0.008,_          0.0484824          4 wl:PPN2012   4 gf:PPN2012   4 PPN2012   4 PPN2012   4 PPN2012   4 PPN2012   4 PPN2012   4 PPN2012   4 PPN2012    (50)TiO,"8s2.9s1.3p4.1d1 X,3,2,0,40,0","8s2.11s1.3p4.1d1 C,3,2,0,39,2",0.5,1.0,1.0
TiO 1,4793.2455,0.125,1.3263704221314767,96.0,3.912291470978275,97.0,99.0,99.0,99.0,7.244,0.0,0.0,0.001,_                             6 wl:PPN2012   6 gf:PPN2012   6 PPN2012   6 PPN2012   6 PPN2012   6 PPN2012   6 PPN2012   6 PPN2012   6 PPN2012    (48)TiO,"8s2.9s1.3p4.1d1 X,3,2,0,96,6","8s2.11s1.3p4.1d1 C,3,2,0,97,10",0.5,1.0,1.0
MgH 1,4793.2661,-1.1540000000000001,0.19026317381691799,16.5,2.7761731880701417,16.5,99.0,99.0,99.0,7.39,0.0,0.0,0.106,_                            18 wl:KMGH  18 gf:KMGH  18 KMGH  18 KMGH  18 KMGH  18 KMGH  18 KMGH  18 KMGH  18 KMGH    (24)MgH,"4s2.5s1 X,2,0,e,16,0","4s2.2p1 A,2,1,f,16,1",0.5,1.0,1.0
TiO 1,4793.2715,0.125,1.330951390259603,95.0,3.9168585528762847,96.0,99.0,99.0,99.0,7.245,0.0,0.0,0.001,_                             6 wl:PPN2012   6 gf:PPN2012   6 PPN2012   6 PPN2012   6 PPN2012   6 PPN2012   6 PPN2012   6 PPN2012   6 PPN2012    (48)TiO,"8s2.9s1.3p4.1d1 X,3,2,0,96,6","8s2.11s1.3p4.1d1 C,3,2,0,97,10",0.5,1.0,1.0
Zr 1,4793.273,-0.83,1.7790219729754126,2.0,4.3649281437185135,1.0,1.17,99.0,99.0,0.0,0.0,0.0,0.161,_          Cu 1 - Ba 2 Bell  17 wl:CB  17 gf:CB  17 CB  17 CB  17 CB  17 CB  17 CB  17 CB  17 CB    Zr,4d3.(b2D).5s a3D,4d3.(b4P).5p w3P*,0.5,1.0,1.0
TiO 1,4793.273,-0.9329999999999999,0.6250964597056318,45.0,3.211002754432931,44.0,99.0,99.0,99.0,7.303,0.0,0.0,0.001,_                             3 wl:PPN2012   3 gf:PPN2012   3 PPN2012   3 PPN2012   3 PPN2012   3 PPN2012   3 PPN2012   3 PPN2012   3 PPN2012    (46)TiO,"8s2.9s1.3p4.1d1 X,3,2,0,44,4","8s2.11s1.3p4.1d1 C,3,2,0,43,7",0.5,1.0,1.0
TiO 1,4793.277,0.379,1.23726476478214,82.0,3.8231689021844035,81.0,99.0,99.0,99.0,7.357,0.0,0.0,0.003,_                             6 wl:PPN2012   6 gf:PPN2012   6 PPN2012   6 PPN2012   6 PPN2012   6 PPN2012   6 PPN2012   6 PPN2012   6 PPN2012    (48)TiO,"8s2.9s1.3p4.1d1 a,1,2,0,82,3","8s2.11s1.3p4.1d1 f,1,2,0,81,6",0.5,1.0,1.0