species,wlcent,gflog,excit,j_lo,e_upp,j_up,lande_lower,lande_upper,lande,gamrad,gamqst,gamvw,depth,reference,term_lower,term_upper,error,atom_number,ionization
TiO 1,4787.9693,-0.413,0.9349613119710214,57.0,3.5237320632061517,57.0,99.0,99.0,99.0,7.482,0.0,0.0,0.001,_                             6 wl:PPN2012   6 gf:PPN2012   6 PPN2012   6 PPN2012   6 PPN2012   6 PPN2012   6 PPN2012   6 PPN2012   6 PPN2012    (48)TiO,"8s2.9s1.3p4.1d1 X,3,2,+,56,6","8s2.3p4.4p1.1d1 B,3,1,-,56,10",0.5,1.0,1.0
TiO 1,4787.9737,-0.44,0.8393894819741855,95.0,3.420265886591159,94.0,99.0,99.0,99.0,7.268,0.0,0.0,0.002,_          -14.6411           3 wl:PPN2012   3 gf:PPN2012   3 PPN2012   3 PPN2012   3 PPN2012   3 PPN2012   3 PPN2012   3 PPN2012   3 PPN2012    (46)TiO,"8s2.9s1.3p4.1d1 X,3,2,0,94,2","8s2.11s1.3p4.1d1 C,3,2,0,93,5",0.5,1.0,1.0
TiO 1,4787.9763,-0.026000000000000002,0.5937056322549353,40.0,3.182472502784685,39.0,99.0,99.0,99.0,7.306,0.0,0.0,0.012,_                             6 wl:PPN2012   6 gf:PPN2012   6 PPN2012   6 PPN2012   6 PPN2012   6 PPN2012   6 PPN2012   6 PPN2012   6 PPN2012    (48)TiO,"8s2.9s1.3p4.1d1 X,3,2,0,39,4","8s2.11s1.3p4.1d1 C,3,2,0,38,7",0.5,1.0,1.0
TiO 1,4787.9864,-0.66,0.6948069218889636,69.0,3.282963554597185,68.0,99.0,99.0,99.0,7.291,0.0,0.0,0.002,_          -1.11904           2 wl:PPN2012   2 gf:PPN2012   2 PPN2012   2 PPN2012   2 PPN2012   2 PPN2012   2 PPN2012   2 PPN2012   2 PPN2012    (47)TiO,"8s2.9s1.3p4.1d1 X,3,2,0,69,3","8s2.11s1.3p4.1d1 C,3,2,0,68,6",0.5,1.0,1.0
Mn 1,4787.9899,-4.037,3.7723062319169047,1.5,6.361065760970369,2.5,1.21,1.59,1.88,7.21,-6.27,-7.82,0.008,"_          Kurucz MnI 2007   39 wl:K07  39 gf:K07  39 K07  39 K07  39 K07  39 K07  39 K07  39 K07  39 K07   hfs:BBAOKb,BPPN Mn",3d5.4s2 b4D,3d5.(4P).4s.4p.(3P*) x4P*,0.5,1.0,1.0
TiO 1,4787.9916,0.302,1.2285933348079188,54.0,3.8173519355916974,55.0,99.0,99.0,99.0,7.358,0.0,0.0,0.002,_                             6 wl:PPN2012   6 gf:PPN2012   6 PPN2012   6 PPN2012   6 PPN2012   6 PPN2012   6 PPN2012   6 PPN2012   6 PPN2012    (48)TiO,"8s2.9s1.3p4.1d1 a,1,2,0,54,5","8s2.11s1.3p4.1d1 f,1,2,0,55,8",0.5,1.0,1.0
Mn 1,4788.0036,-4.513999999999999,3.7723136496434715,1.5,6.361065760970369,2.5,1.21,1.59,1.88,7.21,-6.27,-7.82,0.008,"_          Kurucz MnI 2007   39 wl:K07  39 gf:K07  39 K07  39 K07  39 K07  39 K07  39 K07  39 K07  39 K07   hfs:BBAOKb,BPPN Mn",3d5.4s2 b4D,3d5.(4P).4s.4p.(3P*) x4P*,0.5,1.0,1.0
Mn 1,4788.0129,-4.31,3.7723005035990136,1.5,6.361047597037472,2.5,1.21,1.59,1.88,7.21,-6.27,-7.82,0.008,"_          Kurucz MnI 2007   39 wl:K07  39 gf:K07  39 K07  39 K07  39 K07  39 K07  39 K07  39 K07  39 K07   hfs:BBAOKb,BPPN Mn",3d5.4s2 b4D,3d5.(4P).4s.4p.(3P*) x4P*,0.5,1.0,1.0
TiO 1,4788.0157,-0.73,0.8109087868096684,83.0,3.4015477443306983,84.0,99.0,99.0,99.0,7.276,0.0,0.0,0.001,_          3.49917            8 wl:PPN2012   8 gf:PPN2012   8 PPN2012   8 PPN2012   8 PPN2012   8 PPN2012   8 PPN2012   8 PPN2012   8 PPN2012    (49)TiO,"8s2.9s1.3p4.1d1 X,3,2,0,82,3","8s2.11s1.3p4.1d1 C,3,2,0,83,6",0.5,1.0,1.0
TiO 1,4788.022,-0.968,0.6026831172206115,41.0,3.1914254016840027,40.0,99.0,99.0,99.0,7.305,0.0,0.0,0.001,_                             3 wl:PPN2012   3 gf:PPN2012   3 PPN2012   3 PPN2012   3 PPN2012   3 PPN2012   3 PPN2012   3 PPN2012   3 PPN2012    (46)TiO,"8s2.9s1.3p4.1d1 X,3,2,0,40,4","8s2.11s1.3p4.1d1 C,3,2,0,39,7",0.5,1.0,1.0
TiO 1,4788.0228,0.124,1.3071562190969388,93.0,3.89589803242038,94.0,99.0,99.0,99.0,7.247000000000001,0.0,0.0,0.001,_                             6 wl:PPN2012   6 gf:PPN2012   6 PPN2012   6 PPN2012   6 PPN2012   6 PPN2012   6 PPN2012   6 PPN2012   6 PPN2012    (48)TiO,"8s2.9s1.3p4.1d1 X,3,2,0,94,6","8s2.11s1.3p4.1d1 C,3,2,0,95,10",0.5,1.0,1.0
Mn 1,4788.0235,-4.368,3.7723062319169047,1.5,6.361047597037472,2.5,1.21,1.59,1.88,7.21,-6.27,-7.82,0.008,"_          Kurucz MnI 2007   39 wl:K07  39 gf:K07  39 K07  39 K07  39 K07  39 K07  39 K07  39 K07  39 K07   hfs:BBAOKb,BPPN Mn",3d5.4s2 b4D,3d5.(4P).4s.4p.(3P*) x4P*,0.5,1.0,1.0
MgH 1,4788.0273,-1.062,0.29112382252207664,20.5,2.8798631561615684,20.5,99.0,99.0,99.0,7.39,0.0,0.0,0.094,_                            18 wl:KMGH  18 gf:KMGH  18 KMGH  18 KMGH  18 KMGH  18 KMGH  18 KMGH  18 KMGH  18 KMGH    (24)MgH,"4s2.5s1 X,2,0,e,20,0","4s2.2p1 A,2,1,f,20,1",0.5,1.0,1.0
Mn 1,4788.0309,-4.72,3.7722966060317815,1.5,6.361033974149791,2.5,1.21,1.59,1.88,7.21,-6.27,-7.82,0.008,"_          Kurucz MnI 2007   39 wl:K07  39 gf:K07  39 K07  39 K07  39 K07  39 K07  39 K07  39 K07  39 K07   hfs:BBAOKb,BPPN Mn",3d5.4s2 b4D,3d5.(4P).4s.4p.(3P*) x4P*,0.5,1.0,1.0
Mn 1,4788.0372,-5.468,3.7723136496434715,1.5,6.361047597037472,2.5,1.21,1.59,1.88,7.21,-6.27,-7.82,0.008,"_          Kurucz MnI 2007   39 wl:K07  39 gf:K07  39 K07  39 K07  39 K07  39 K07  39 K07  39 K07  39 K07   hfs:BBAOKb,BPPN Mn",3d5.4s2 b4D,3d5.(4P).4s.4p.(3P*) x4P*,0.5,1.0,1.0
Mn 1,4788.0381,-4.388999999999999,3.7723005035990136,1.5,6.361033974149791,2.5,1.21,1.59,1.88,7.21,-6.27,-7.82,0.008,"_          Kurucz MnI 2007   39 wl:K07  39 gf:K07  39 K07  39 K07  39 K07  39 K07  39 K07  39 K07  39 K07   hfs:BBAOKb,BPPN Mn",3d5.4s2 b4D,3d5.(4P).4s.4p.(3P*) x4P*,0.5,1.0,1.0
TiO 1,4788.0411,-0.589,0.8596156192316352,84.0,3.448070210763217,85.0,99.0,99.0,99.0,7.274,0.0,0.0,0.001,_          -0.513038          2 wl:PPN2012   2 gf:PPN2012   2 PPN2012   2 PPN2012   2 PPN2012   2 PPN2012   2 PPN2012   2 PPN2012   2 PPN2012    (47)TiO,"8s2.9s1.3p4.1d1 X,3,2,0,85,3","8s2.11s1.3p4.1d1 C,3,2,0,86,6",0.5,1.0,1.0
MgH 1,4788.0447,-0.955,0.3202309726411511,13.5,2.908960883481635,13.5,99.0,99.0,99.0,7.39,0.0,0.0,0.107,_                            18 wl:KMGH  18 gf:KMGH  18 KMGH  18 KMGH  18 KMGH  18 KMGH  18 KMGH  18 KMGH  18 KMGH    (24)MgH,"4s2.5s1 X,2,0,f,14,1","4s2.2p1 A,2,1,e,14,2",0.5,1.0,1.0
Mn 1,4788.0477,-4.544,3.7722966060317815,1.5,6.361024892307327,2.5,1.21,1.59,1.88,7.21,-6.27,-7.82,0.008,"_          Kurucz MnI 2007   39 wl:K07  39 gf:K07  39 K07  39 K07  39 K07  39 K07  39 K07  39 K07  39 K07   hfs:BBAOKb,BPPN Mn",3d5.4s2 b4D,3d5.(4P).4s.4p.(3P*) x4P*,0.5,1.0,1.0
TiO 1,4788.0479,-0.98,0.6227462400552275,40.0,3.2114743903201073,39.0,99.0,99.0,99.0,7.306,0.0,0.0,0.001,_                             3 wl:PPN2012   3 gf:PPN2012   3 PPN2012   3 PPN2012   3 PPN2012   3 PPN2012   3 PPN2012   3 PPN2012   3 PPN2012    (46)TiO,"8s2.9s1.3p4.1d1 X,3,2,0,41,4","8s2.11s1.3p4.1d1 C,3,2,0,40,7",0.5,1.0,1.0
Mn 1,4788.0487,-5.088,3.7723062319169047,1.5,6.361033974149791,2.5,1.21,1.59,1.88,7.21,-6.27,-7.82,0.008,"_          Kurucz MnI 2007   39 wl:K07  39 gf:K07  39 K07  39 K07  39 K07  39 K07  39 K07  39 K07  39 K07   hfs:BBAOKb,BPPN Mn",3d5.4s2 b4D,3d5.(4P).4s.4p.(3P*) x4P*,0.5,1.0,1.0
Mn 1,4788.0549,-4.912,3.7723005035990136,1.5,6.361024892307327,2.5,1.21,1.59,1.88,7.21,-6.27,-7.82,0.008,"_          Kurucz MnI 2007   39 wl:K07  39 gf:K07  39 K07  39 K07  39 K07  39 K07  39 K07  39 K07  39 K07   hfs:BBAOKb,BPPN Mn",3d5.4s2 b4D,3d5.(4P).4s.4p.(3P*) x4P*,0.5,1.0,1.0
Mn 1,4788.0561,-4.8660000000000005,3.7722966060317815,1.5,6.361020351262109,2.5,1.21,1.59,1.88,7.21,-6.27,-7.82,0.008,"_          Kurucz MnI 2007   39 wl:K07  39 gf:K07  39 K07  39 K07  39 K07  39 K07  39 K07  39 K07  39 K07   hfs:BBAOKb,BPPN Mn",3d5.4s2 b4D,3d5.(4P).4s.4p.(3P*) x4P*,0.5,1.0,1.0
TiO 1,4788.0618,0.418,0.8733927060592566,87.0,3.4591237739202714,88.0,99.0,99.0,99.0,7.271,0.0,0.0,0.012,_          -5.53597           6 wl:PPN2012   6 gf:PPN2012   6 PPN2012   6 PPN2012   6 PPN2012   6 PPN2012   6 PPN2012   6 PPN2012   6 PPN2012    (48)TiO,"8s2.9s1.3p4.1d1 X,3,2,0,87,3","8s2.11s1.3p4.1d1 C,3,2,0,88,6",0.5,1.0,1.0
TiO 1,4788.0826,-0.652,0.8545108674628767,105.0,3.443148286092048,104.0,99.0,99.0,99.0,7.257000000000001,0.0,0.0,0.001,_          -0.133262          8 wl:PPN2012   8 gf:PPN2012   8 PPN2012   8 PPN2012   8 PPN2012   8 PPN2012   8 PPN2012   8 PPN2012   8 PPN2012    (49)TiO,"8s2.9s1.3p4.1d1 X,3,2,0,105,1","8s2.11s1.3p4.1d1 C,3,2,0,104,4",0.5,1.0,1.0
TiO 1,4788.0903,-0.4,0.985991484269381,105.0,3.574180241283167,106.0,99.0,99.0,99.0,7.251,0.0,0.0,0.001,_          -0.955739          3 wl:PPN2012   3 gf:PPN2012   3 PPN2012   3 PPN2012   3 PPN2012   3 PPN2012   3 PPN2012   3 PPN2012   3 PPN2012    (46)TiO,"8s2.9s1.3p4.1d1 X,3,2,0,105,2","8s2.11s1.3p4.1d1 C,3,2,0,106,5",0.5,1.0,1.0
TiO 1,4788.0936,0.14400000000000002,1.3465777385877504,110.0,3.9352812407941737,109.0,99.0,99.0,99.0,7.348,0.0,0.0,0.001,_                             6 wl:PPN2012   6 gf:PPN2012   6 PPN2012   6 PPN2012   6 PPN2012   6 PPN2012   6 PPN2012   6 PPN2012   6 PPN2012    (48)TiO,"8s2.9s1.3p4.1d1 a,1,2,0,110,1","8s2.11s1.3p4.1d1 f,1,2,0,109,4",0.5,1.0,1.0
TiO 1,4788.0947,0.33299999999999996,1.2407306934287383,97.0,3.829433575714174,96.0,99.0,99.0,99.0,7.251,0.0,0.0,0.003,_                             6 wl:PPN2012   6 gf:PPN2012   6 PPN2012   6 PPN2012   6 PPN2012   6 PPN2012   6 PPN2012   6 PPN2012   6 PPN2012    (48)TiO,"8s2.9s1.3p4.1d1 X,3,2,0,98,5","8s2.11s1.3p4.1d1 C,3,2,0,97,9",0.5,1.0,1.0
MgH 1,4788.0986,-1.265,0.3671546519366828,4.5,2.955855426490761,4.5,99.0,99.0,99.0,7.39,0.0,0.0,0.048,_                            18 wl:KMGH  18 gf:KMGH  18 KMGH  18 KMGH  18 KMGH  18 KMGH  18 KMGH  18 KMGH  18 KMGH    (24)MgH,"4s2.5s1 X,2,0,f,5,2","4s2.2p1 A,2,1,e,5,3",0.5,1.0,1.0
TiO 1,4788.1066,-0.809,0.6866723558882079,67.0,3.2754244475016194,66.0,99.0,99.0,99.0,7.292000000000001,0.0,0.0,0.001,_          0.102814           8 wl:PPN2012   8 gf:PPN2012   8 PPN2012   8 PPN2012   8 PPN2012   8 PPN2012   8 PPN2012   8 PPN2012   8 PPN2012    (49)TiO,"8s2.9s1.3p4.1d1 X,3,2,0,68,3","8s2.11s1.3p4.1d1 C,3,2,0,67,6",0.5,1.0,1.0
TiO 1,4788.1099,-0.62,0.703180579016121,68.0,3.291921164896007,67.0,99.0,99.0,99.0,7.291,0.0,0.0,0.002,_          0.0848368          3 wl:PPN2012   3 gf:PPN2012   3 PPN2012   3 PPN2012   3 PPN2012   3 PPN2012   3 PPN2012   3 PPN2012   3 PPN2012    (46)TiO,"8s2.9s1.3p4.1d1 X,3,2,0,69,3","8s2.11s1.3p4.1d1 C,3,2,0,68,6",0.5,1.0,1.0
TiO 1,4788.116,0.48100000000000004,1.3207704278843435,113.0,3.9094617796394147,112.0,99.0,99.0,99.0,7.234,0.0,0.0,0.003,_                             6 wl:PPN2012   6 gf:PPN2012   6 PPN2012   6 PPN2012   6 PPN2012   6 PPN2012   6 PPN2012   6 PPN2012   6 PPN2012    (48)TiO,"8s2.9s1.3p4.1d1 X,3,2,0,113,4","8s2.11s1.3p4.1d1 C,3,2,0,112,8",0.5,1.0,1.0
CH 1,4788.12,-2.846,1.0548775135316353,6.5,3.6435668815395466,7.5,99.0,99.0,99.0,6.27,0.0,0.0,0.002,_                            37 wl:JLIY  37 gf:JLIY  37 JLIY  37 JLIY  37 JLIY  37 JLIY  37 JLIY  37 JLIY  37 JLIY    (12)CH,"1s2.2s2.3s2.1p1 X,2,1,e,7,3","1s2.2s2.3s1.1p2 A,2,2,e,8,2",0.5,1.0,1.0
TiO 1,4788.1318,-0.821,0.6642180366259238,68.0,3.2532222253080514,67.0,99.0,99.0,99.0,7.292000000000001,0.0,0.0,0.002,_          0.594348           4 wl:PPN2012   4 gf:PPN2012   4 PPN2012   4 PPN2012   4 PPN2012   4 PPN2012   4 PPN2012   4 PPN2012   4 PPN2012    (50)TiO,"8s2.9s1.3p4.1d1 X,3,2,0,67,3","8s2.11s1.3p4.1d1 C,3,2,0,66,6",0.5,1.0,1.0
TiO 1,4788.1329,-0.922,0.1123761521851471,36.0,2.7011129069533313,35.0,99.0,99.0,99.0,7.322,0.0,0.0,0.01,_          0.100802           2 wl:PPN2012   2 gf:PPN2012   2 PPN2012   2 PPN2012   2 PPN2012   2 PPN2012   2 PPN2012   2 PPN2012   2 PPN2012    (47)TiO,"8s2.9s1.3p4.1d1 X,3,2,0,37,0","8s2.11s1.3p4.1d1 C,3,2,0,36,2",0.5,1.0,1.0
TiO 1,4788.1342,0.261,0.2208398218396676,54.0,2.8095673397851404,55.0,99.0,99.0,99.0,7.311,0.0,0.0,0.09699999999999999,_          0.0851134          6 wl:PPN2012   6 gf:PPN2012   6 PPN2012   6 PPN2012   6 PPN2012   6 PPN2012   6 PPN2012   6 PPN2012   6 PPN2012    (48)TiO,"8s2.9s1.3p4.1d1 X,3,2,0,55,0","8s2.11s1.3p4.1d1 C,3,2,0,56,2",0.5,1.0,1.0
TiO 1,4788.1523,0.278,0.2217376162103883,56.0,2.810450107271128,57.0,99.0,99.0,99.0,7.31,0.0,0.0,0.10099999999999999,_          0.0752850          6 wl:PPN2012   6 gf:PPN2012   6 PPN2012   6 PPN2012   6 PPN2012   6 PPN2012   6 PPN2012   6 PPN2012   6 PPN2012    (48)TiO,"8s2.9s1.3p4.1d1 X,3,2,0,56,0","8s2.11s1.3p4.1d1 C,3,2,0,57,2",0.5,1.0,1.0
TiO 1,4788.1683,-0.9690000000000001,0.615229164951552,41.0,3.203892260708019,40.0,99.0,99.0,99.0,7.305,0.0,0.0,0.001,_                             3 wl:PPN2012   3 gf:PPN2012   3 PPN2012   3 PPN2012   3 PPN2012   3 PPN2012   3 PPN2012   3 PPN2012   3 PPN2012    (46)TiO,"8s2.9s1.3p4.1d1 X,3,2,0,41,4","8s2.11s1.3p4.1d1 C,3,2,0,40,7",0.5,1.0,1.0
Mo 1,4788.174,-1.857,2.291176143853409,1.0,4.87983612760652,1.0,2.42,2.48,2.45,0.0,0.0,0.0,0.008,_          Cu 1 - Ba 2 Bell  17 wl:WBb  17 gf:WBb  17 WBb  17 WBb  17 WBb  17 WBb  17 WBb  17 WBb  17 WBb    Mo,4d5.(4P).5s a5P,4d4.5s.(4D).5p x5P*,0.5,1.0,1.0
MgH 1,4788.1825,-1.105,0.3751210085767308,6.5,2.9637764049145354,6.5,99.0,99.0,99.0,7.39,0.0,0.0,0.066,_                            18 wl:KMGH  18 gf:KMGH  18 KMGH  18 KMGH  18 KMGH  18 KMGH  18 KMGH  18 KMGH  18 KMGH    (24)MgH,"4s2.5s1 X,2,0,e,6,2","4s2.2p1 A,2,1,f,6,3",0.5,1.0,1.0
TiO 1,4788.192,-0.614,0.6830023740494132,69.0,3.271971239633681,68.0,99.0,99.0,99.0,7.291,0.0,0.0,0.002,_          0.589249           3 wl:PPN2012   3 gf:PPN2012   3 PPN2012   3 PPN2012   3 PPN2012   3 PPN2012   3 PPN2012   3 PPN2012   3 PPN2012    (46)TiO,"8s2.9s1.3p4.1d1 X,3,2,0,68,3","8s2.11s1.3p4.1d1 C,3,2,0,67,6",0.5,1.0,1.0
Pd 1,4788.216,0.04,4.224008944715942,2.0,6.812646487329311,3.0,1.48,99.0,99.0,0.0,0.0,0.0,0.004,_          Cu 1 - Ba 2 Bell  17 wl:CB  17 gf:CB  17 CB  17 CB  17 CB  17 CB  17 CB  17 CB  17 CB    Pd,4d9.(2D<5/2>).5p 3P*,4d9.(2D<5/2>).5d 3D,0.5,1.0,1.0
Fe 1,4788.2188,-2.551,4.445627226136266,2.0,7.03426303297087,1.0,0.34,1.34,-0.17,8.14,-4.31,-7.33,0.17800000000000002,_          Kurucz Fe I 2014   5 wl:K14   5 gf:K14   5 K14   5 K14   5 K14   5 K14   5 K14   5 K14   5 K14    Fe,3d7.(4F).4p z5G*,3d6.4s.(6D).5d 5D,0.5,1.0,1.0
TiO 1,4788.2222,-0.469,0.788952896419634,88.0,3.3774891067484103,87.0,99.0,99.0,99.0,7.275,0.0,0.0,0.002,_          -0.180915          3 wl:PPN2012   3 gf:PPN2012   3 PPN2012   3 PPN2012   3 PPN2012   3 PPN2012   3 PPN2012   3 PPN2012   3 PPN2012    (46)TiO,"8s2.9s1.3p4.1d1 X,3,2,0,89,2","8s2.11s1.3p4.1d1 C,3,2,0,88,5",0.5,1.0,1.0
Ce 2,4788.23,-1.45,1.0417980485879192,3.5,3.6304276562126496,2.5,1.34,1.05,1.71,0.0,0.0,0.0,0.094,E 0.04     Wisconsin REE ex  11 wl:LSCI  11 gf:LSCI  11 LSCI  11 LSCI  11 LSCI  11 LSCI  11 LSCI  11 LSCI  11 LSCI    Ce+,4f.5d.(3D*).6s 4D*,4f.5d.(3F*).6p 4f.5d.(3F*).6p,1.096478196143185,1.0,2.0
TiO 1,4788.237,0.125,1.297894847514315,95.0,3.886520859597319,96.0,99.0,99.0,99.0,7.246,0.0,0.0,0.001,_                             6 wl:PPN2012   6 gf:PPN2012   6 PPN2012   6 PPN2012   6 PPN2012   6 PPN2012   6 PPN2012   6 PPN2012   6 PPN2012    (48)TiO,"8s2.9s1.3p4.1d1 X,3,2,0,94,6","8s2.11s1.3p4.1d1 C,3,2,0,95,10",0.5,1.0,1.0
TiO 1,4788.2534,0.5329999999999999,1.5236100627558415,139.0,4.109117996256669,138.0,99.0,99.0,99.0,7.195,0.0,0.0,0.001,_          -5.75799           6 wl:PPN2012   6 gf:PPN2012   6 PPN2012   6 PPN2012   6 PPN2012   6 PPN2012   6 PPN2012   6 PPN2012   6 PPN2012    (48)TiO,"8s2.9s1.3p4.1d1 X,3,2,0,140,2","8s2.11s1.3p4.1d1 C,3,2,0,139,6",0.5,1.0,1.0
TiO 1,4788.2596,0.564,1.1336349538233257,125.0,3.7165948136914264,126.0,99.0,99.0,99.0,7.222,0.0,0.0,0.006,_          -10.4812           6 wl:PPN2012   6 gf:PPN2012   6 PPN2012   6 PPN2012   6 PPN2012   6 PPN2012   6 PPN2012   6 PPN2012   6 PPN2012    (48)TiO,"8s2.9s1.3p4.1d1 X,3,2,0,124,1","8s2.11s1.3p4.1d1 C,3,2,0,125,4",0.5,1.0,1.0
TiO 1,4788.2668,-0.71,0.21672853064839767,57.0,2.805335263188695,58.0,99.0,99.0,99.0,7.309,0.0,0.0,0.011000000000000001,_          -0.00584236        2 wl:PPN2012   2 gf:PPN2012   2 PPN2012   2 PPN2012   2 PPN2012   2 PPN2012   2 PPN2012   2 PPN2012   2 PPN2012    (47)TiO,"8s2.9s1.3p4.1d1 X,3,2,0,56,0","8s2.11s1.3p4.1d1 C,3,2,0,57,2",0.5,1.0,1.0
TiO 1,4788.2758,0.1,0.09671538584378189,38.0,2.685352903660311,37.0,99.0,99.0,99.0,7.322,0.0,0.0,0.10800000000000001,_          0.0602086          6 wl:PPN2012   6 gf:PPN2012   6 PPN2012   6 PPN2012   6 PPN2012   6 PPN2012   6 PPN2012   6 PPN2012   6 PPN2012    (48)TiO,"8s2.9s1.3p4.1d1 X,3,2,0,37,0","8s2.11s1.3p4.1d1 C,3,2,0,36,2",0.5,1.0,1.0
TiO 1,4788.2777,-0.8859999999999999,0.7156796863298991,57.0,3.3042836292257536,58.0,99.0,99.0,99.0,7.295,0.0,0.0,0.001,_                             2 wl:PPN2012   2 gf:PPN2012   2 PPN2012   2 PPN2012   2 PPN2012   2 PPN2012   2 PPN2012   2 PPN2012   2 PPN2012    (47)TiO,"8s2.9s1.3p4.1d1 X,3,2,0,57,4","8s2.11s1.3p4.1d1 C,3,2,0,58,7",0.5,1.0,1.0
Pr 1,4788.282,-0.9670000000000001,0.0,4.5,2.588601587196102,4.5,0.73,1.04,0.89,0.0,0.0,0.0,0.01,_          La1 to Lu 2 Bell   1 wl:MC   1 gf:MC   1 MC   1 MC   1 MC   1 MC   1 MC   1 MC   1 MC    Pr,4f3.6s2 4I*, ,0.5,1.0,1.0
TiO 1,4788.2935,-0.027000000000000003,0.6061729500204822,40.0,3.19476838760039,39.0,99.0,99.0,99.0,7.306,0.0,0.0,0.012,_                             6 wl:PPN2012   6 gf:PPN2012   6 PPN2012   6 PPN2012   6 PPN2012   6 PPN2012   6 PPN2012   6 PPN2012   6 PPN2012    (48)TiO,"8s2.9s1.3p4.1d1 X,3,2,0,40,4","8s2.11s1.3p4.1d1 C,3,2,0,39,7",0.5,1.0,1.0
TiO 1,4788.2953,-0.883,0.19890861670334947,55.0,2.787501376224592,56.0,99.0,99.0,99.0,7.31,0.0,0.0,0.008,_          -0.00315166        4 wl:PPN2012   4 gf:PPN2012   4 PPN2012   4 PPN2012   4 PPN2012   4 PPN2012   4 PPN2012   4 PPN2012   4 PPN2012    (50)TiO,"8s2.9s1.3p4.1d1 X,3,2,0,54,0","8s2.11s1.3p4.1d1 C,3,2,0,55,2",0.5,1.0,1.0
TiO 1,4788.3019,0.335,1.2362454782963184,98.0,3.824836365656179,97.0,99.0,99.0,99.0,7.25,0.0,0.0,0.002,_                             6 wl:PPN2012   6 gf:PPN2012   6 PPN2012   6 PPN2012   6 PPN2012   6 PPN2012   6 PPN2012   6 PPN2012   6 PPN2012    (48)TiO,"8s2.9s1.3p4.1d1 X,3,2,0,98,5","8s2.11s1.3p4.1d1 C,3,2,0,97,9",0.5,1.0,1.0
TiO 1,4788.3234,0.099,0.1091220257430869,38.0,2.6977498355969542,37.0,99.0,99.0,99.0,7.322,0.0,0.0,0.10300000000000001,_          0.0897365          6 wl:PPN2012   6 gf:PPN2012   6 PPN2012   6 PPN2012   6 PPN2012   6 PPN2012   6 PPN2012   6 PPN2012   6 PPN2012    (48)TiO,"8s2.9s1.3p4.1d1 X,3,2,0,38,0","8s2.11s1.3p4.1d1 C,3,2,0,37,2",0.5,1.0,1.0
TiO 1,4788.3278,0.111,0.6997723154197658,57.0,3.2883491801668927,58.0,99.0,99.0,99.0,7.295,0.0,0.0,0.011000000000000001,_                             6 wl:PPN2012   6 gf:PPN2012   6 PPN2012   6 PPN2012   6 PPN2012   6 PPN2012   6 PPN2012   6 PPN2012   6 PPN2012    (48)TiO,"8s2.9s1.3p4.1d1 X,3,2,0,56,4","8s2.11s1.3p4.1d1 C,3,2,0,57,7",0.5,1.0,1.0
TiO 1,4788.3406,-0.485,0.8355460586415497,95.0,3.416225365579805,94.0,99.0,99.0,99.0,7.268,0.0,0.0,0.002,_          -14.6411           2 wl:PPN2012   2 gf:PPN2012   2 PPN2012   2 PPN2012   2 PPN2012   2 PPN2012   2 PPN2012   2 PPN2012   2 PPN2012    (47)TiO,"8s2.9s1.3p4.1d1 X,3,2,0,94,2","8s2.11s1.3p4.1d1 C,3,2,0,93,5",0.5,1.0,1.0
TiO 1,4788.3609,-1.104,0.10164241866388678,34.0,2.690257346559637,33.0,99.0,99.0,99.0,7.3229999999999995,0.0,0.0,0.006999999999999999,_          0.103476           4 wl:PPN2012   4 gf:PPN2012   4 PPN2012   4 PPN2012   4 PPN2012   4 PPN2012   4 PPN2012   4 PPN2012   4 PPN2012    (50)TiO,"8s2.9s1.3p4.1d1 X,3,2,0,35,0","8s2.11s1.3p4.1d1 C,3,2,0,34,2",0.5,1.0,1.0
TiO 1,4788.3637,-0.465,0.7842347025817477,89.0,3.372624834729065,88.0,99.0,99.0,99.0,7.274,0.0,0.0,0.002,_          -0.309463          3 wl:PPN2012   3 gf:PPN2012   3 PPN2012   3 PPN2012   3 PPN2012   3 PPN2012   3 PPN2012   3 PPN2012   3 PPN2012    (46)TiO,"8s2.9s1.3p4.1d1 X,3,2,0,89,2","8s2.11s1.3p4.1d1 C,3,2,0,88,5",0.5,1.0,1.0
TiO 1,4788.3908,0.10400000000000001,1.1437549159734297,81.0,3.73229778425361,80.0,99.0,99.0,99.0,7.263,0.0,0.0,0.002,_                             6 wl:PPN2012   6 gf:PPN2012   6 PPN2012   6 PPN2012   6 PPN2012   6 PPN2012   6 PPN2012   6 PPN2012   6 PPN2012    (48)TiO,"8s2.9s1.3p4.1d1 X,3,2,0,80,6","8s2.11s1.3p4.1d1 C,3,2,0,79,10",0.5,1.0,1.0
Dy 1,4788.4,-2.2,0.5125791887069241,7.0,3.1011187838042913,8.0,1.17,1.34,1.92,0.0,0.0,0.0,0.002,E 0.03     Wisconsin REE ex  11 wl:WLN  11 gf:WLN  11 WLN  11 WLN  11 WLN  11 WLN  11 WLN  11 WLN  11 WLN    Dy,4f10.6s2 5I,4f9.(6H).5d2.(3F).(8I).6s 9I*,1.0715193052376064,1.0,1.0