species,wlcent,gflog,excit,j_lo,e_upp,j_up,lande_lower,lande_upper,lande,gamrad,gamqst,gamvw,depth,reference,term_lower,term_upper,error,atom_number,ionization
TiO 1,4793.2961,0.142,1.1329206808617,38.0,3.718814502778734,37.0,99.0,99.0,99.0,7.365,0.0,0.0,0.002,_                             6 wl:PPN2012   6 gf:PPN2012   6 PPN2012   6 PPN2012   6 PPN2012   6 PPN2012   6 PPN2012   6 PPN2012   6 PPN2012    (48)TiO,"8s2.9s1.3p4.1d1 a,1,2,0,38,5","8s2.11s1.3p4.1d1 f,1,2,0,37,8",0.5,1.0,1.0
TiO 1,4793.3063,-0.47100000000000003,0.8637839803490007,63.0,3.449672334562926,63.0,99.0,99.0,99.0,7.421,0.0,0.0,0.002,_                             6 wl:PPN2012   6 gf:PPN2012   6 PPN2012   6 PPN2012   6 PPN2012   6 PPN2012   6 PPN2012   6 PPN2012   6 PPN2012    (48)TiO,"8s2.9s1.3p4.1d1 X,3,2,+,62,5","8s2.3p4.4p1.1d1 B,3,1,-,62,9",0.5,1.0,1.0
Fe 1,4793.3139,-3.227,4.371351021084257,4.0,6.957235246624407,5.0,1.1,1.39,1.96,8.14,-4.41,-7.35,0.06,_          Kurucz Fe I 2014   5 wl:K14   5 gf:K14   5 K14   5 K14   5 K14   5 K14   5 K14   5 K14   5 K14    Fe,3d7.(4F).4p z5G*,3d7.(4F).6s 5F,0.5,1.0,1.0
Ce 2,4793.3164,-0.87,1.457988078671445,5.5,4.043870940385422,4.5,1.12,1.14,1.09,0.0,0.0,0.0,0.086,C-0.248    Ce 2: DREAM data  15 wl:PQWB  15 gf:PQWB  15 PQWB  15 PQWB  15 PQWB  15 PQWB  15 PQWB  15 PQWB  15 PQWB    Ce+,4f2.(3H).5d 4H,"4f2.(3F<3>).6p.<3/2> (3,3/2)*",0.248,1.0,2.0
TiO 1,4793.3367,-1.02,0.12382303041183583,41.0,2.7097423310814497,40.0,99.0,99.0,99.0,7.32,0.0,0.0,0.008,_          0.0876920          4 wl:PPN2012   4 gf:PPN2012   4 PPN2012   4 PPN2012   4 PPN2012   4 PPN2012   4 PPN2012   4 PPN2012   4 PPN2012    (50)TiO,"8s2.9s1.3p4.1d1 X,3,2,0,41,0","8s2.11s1.3p4.1d1 C,3,2,0,40,2",0.5,1.0,1.0
TiO 1,4793.357,-0.615,0.8527447125699148,97.0,3.430116803032753,96.0,99.0,99.0,99.0,7.265,0.0,0.0,0.001,_          -15.7877           8 wl:PPN2012   8 gf:PPN2012   8 PPN2012   8 PPN2012   8 PPN2012   8 PPN2012   8 PPN2012   8 PPN2012   8 PPN2012    (49)TiO,"8s2.9s1.3p4.1d1 X,3,2,0,96,2","8s2.11s1.3p4.1d1 C,3,2,0,95,5",0.5,1.0,1.0
TiO 1,4793.3659,-0.943,0.6450875601199374,44.0,3.230943752833039,43.0,99.0,99.0,99.0,7.303999999999999,0.0,0.0,0.001,_                             3 wl:PPN2012   3 gf:PPN2012   3 PPN2012   3 PPN2012   3 PPN2012   3 PPN2012   3 PPN2012   3 PPN2012   3 PPN2012    (46)TiO,"8s2.9s1.3p4.1d1 X,3,2,0,45,4","8s2.11s1.3p4.1d1 C,3,2,0,44,7",0.5,1.0,1.0
TiO 1,4793.3722,-0.8270000000000001,0.2374280023765291,60.0,2.8232757765626224,61.0,99.0,99.0,99.0,7.307,0.0,0.0,0.008,_          -0.00926095        8 wl:PPN2012   8 gf:PPN2012   8 PPN2012   8 PPN2012   8 PPN2012   8 PPN2012   8 PPN2012   8 PPN2012   8 PPN2012    (49)TiO,"8s2.9s1.3p4.1d1 X,3,2,0,59,0","8s2.11s1.3p4.1d1 C,3,2,0,60,2",0.5,1.0,1.0
TiO 1,4793.3776,0.5529999999999999,1.1252183857654239,122.0,3.710657210474582,123.0,99.0,99.0,99.0,7.227,0.0,0.0,0.006,_          -0.762107          6 wl:PPN2012   6 gf:PPN2012   6 PPN2012   6 PPN2012   6 PPN2012   6 PPN2012   6 PPN2012   6 PPN2012   6 PPN2012    (48)TiO,"8s2.9s1.3p4.1d1 X,3,2,0,123,1","8s2.11s1.3p4.1d1 C,3,2,0,124,4",0.5,1.0,1.0
TiO 1,4793.3857,0.239,1.3215088777644757,106.0,3.9073544202350146,106.0,99.0,99.0,99.0,7.462000000000001,0.0,0.0,0.001,_                             6 wl:PPN2012   6 gf:PPN2012   6 PPN2012   6 PPN2012   6 PPN2012   6 PPN2012   6 PPN2012   6 PPN2012   6 PPN2012    (48)TiO,"8s2.9s1.3p4.1d1 X,3,2,+,105,5","8s2.3p4.4p1.1d1 B,3,1,-,105,8",0.5,1.0,1.0
TiO 1,4793.387,-0.46,0.8123600218410563,90.0,3.3980951563837483,89.0,99.0,99.0,99.0,7.273,0.0,0.0,0.002,_          -0.203296          3 wl:PPN2012   3 gf:PPN2012   3 PPN2012   3 PPN2012   3 PPN2012   3 PPN2012   3 PPN2012   3 PPN2012   3 PPN2012    (46)TiO,"8s2.9s1.3p4.1d1 X,3,2,0,91,2","8s2.11s1.3p4.1d1 C,3,2,0,90,5",0.5,1.0,1.0
TiO 1,4793.389,0.326,1.3044232354321048,98.0,3.890267042123879,97.0,99.0,99.0,99.0,7.351,0.0,0.0,0.002,_                             6 wl:PPN2012   6 gf:PPN2012   6 PPN2012   6 PPN2012   6 PPN2012   6 PPN2012   6 PPN2012   6 PPN2012   6 PPN2012    (48)TiO,"8s2.9s1.3p4.1d1 a,1,2,0,98,2","8s2.11s1.3p4.1d1 f,1,2,0,97,5",0.5,1.0,1.0
TiO 1,4793.4062,-0.6,0.7251930929891399,72.0,3.310292647340341,71.0,99.0,99.0,99.0,7.287999999999999,0.0,0.0,0.002,_          -1.36268           3 wl:PPN2012   3 gf:PPN2012   3 PPN2012   3 PPN2012   3 PPN2012   3 PPN2012   3 PPN2012   3 PPN2012   3 PPN2012    (46)TiO,"8s2.9s1.3p4.1d1 X,3,2,0,72,3","8s2.11s1.3p4.1d1 C,3,2,0,71,6",0.5,1.0,1.0
Ti 1,4793.4069,-3.109,3.089824691304145,1.0,5.67565870324432,1.0,1.99,2.5,2.24,8.03,-5.31,-7.54,0.003,_          Kurucz TiI 2016   22 wl:K16  22 gf:K16  22 K16  22 K16  22 K16  22 K16  22 K16  22 K16  22 K16    Ti,3d2.(3P).4s.4p.(3P*) z3S*,3d2.4s.(4F).5s 5P,0.5,1.0,1.0
Mo 1,4793.409,-1.176,2.597574695519608,2.0,5.18340734363361,2.0,1.29,99.0,99.0,0.0,0.0,0.0,0.013999999999999999,_          Cu 1 - Ba 2 Bell  17 wl:WBb  17 gf:WBb  17 WBb  17 WBb  17 WBb  17 WBb  17 WBb  17 WBb  17 WBb    Mo,4d5.(4D).5s a3D,* *,0.5,1.0,1.0
TiO 1,4793.4119,-0.8420000000000001,0.24964856679227093,58.0,2.8355251673042763,59.0,99.0,99.0,99.0,7.308,0.0,0.0,0.006999999999999999,_          0.0839021          8 wl:PPN2012   8 gf:PPN2012   8 PPN2012   8 PPN2012   8 PPN2012   8 PPN2012   8 PPN2012   8 PPN2012   8 PPN2012    (49)TiO,"8s2.9s1.3p4.1d1 X,3,2,0,59,0","8s2.11s1.3p4.1d1 C,3,2,0,60,2",0.5,1.0,1.0
Ni 1,4793.426,-2.19,3.705698834449356,2.0,6.291522555701141,1.0,1.04,0.2,1.47,8.29,-5.27,-7.251,0.228,ND         Kurucz NiI 2008   33 wl:K08  40 gf:FMW  33 K08  33 K08  33 K08  33 K08  33 K08  25 BPM  33 K08    Ni,3d9.(2D).4p z3D*,3d8.4s.(4F).5s e5F,0.5,1.0,1.0
TiO 1,4793.4459,0.10800000000000001,1.1643298951688814,83.0,3.750142953779683,82.0,99.0,99.0,99.0,7.261,0.0,0.0,0.002,_                             6 wl:PPN2012   6 gf:PPN2012   6 PPN2012   6 PPN2012   6 PPN2012   6 PPN2012   6 PPN2012   6 PPN2012   6 PPN2012    (48)TiO,"8s2.9s1.3p4.1d1 X,3,2,0,82,6","8s2.11s1.3p4.1d1 C,3,2,0,81,10",0.5,1.0,1.0
TiO 1,4793.4508,0.121,0.13242612029641151,40.0,2.7182879418920782,39.0,99.0,99.0,99.0,7.32,0.0,0.0,0.099,_          0.0953387          6 wl:PPN2012   6 gf:PPN2012   6 PPN2012   6 PPN2012   6 PPN2012   6 PPN2012   6 PPN2012   6 PPN2012   6 PPN2012    (48)TiO,"8s2.9s1.3p4.1d1 X,3,2,0,41,0","8s2.11s1.3p4.1d1 C,3,2,0,40,2",0.5,1.0,1.0
TiO 1,4793.4509,-0.8420000000000001,0.12411629023411191,43.0,2.7099490127386323,42.0,99.0,99.0,99.0,7.319,0.0,0.0,0.011000000000000001,_          0.0415272          2 wl:PPN2012   2 gf:PPN2012   2 PPN2012   2 PPN2012   2 PPN2012   2 PPN2012   2 PPN2012   2 PPN2012   2 PPN2012    (47)TiO,"8s2.9s1.3p4.1d1 X,3,2,0,42,0","8s2.11s1.3p4.1d1 C,3,2,0,41,2",0.5,1.0,1.0
TiO 1,4793.4693,0.341,0.7159571629638373,70.0,3.301782372025991,69.0,99.0,99.0,99.0,7.29,0.0,0.0,0.018000000000000002,_          0.0459728          6 wl:PPN2012   6 gf:PPN2012   6 PPN2012   6 PPN2012   6 PPN2012   6 PPN2012   6 PPN2012   6 PPN2012   6 PPN2012    (48)TiO,"8s2.9s1.3p4.1d1 X,3,2,0,71,3","8s2.11s1.3p4.1d1 C,3,2,0,70,6",0.5,1.0,1.0
MgH 1,4793.4773,-1.337,0.20638223534581177,5.5,2.7921783081215605,5.5,99.0,99.0,99.0,7.39,0.0,0.0,0.069,_                            18 wl:KMGH  18 gf:KMGH  18 KMGH  18 KMGH  18 KMGH  18 KMGH  18 KMGH  18 KMGH  18 KMGH    (24)MgH,"4s2.5s1 X,2,0,f,6,1","4s2.2p1 A,2,1,e,6,2",0.5,1.0,1.0
TiO 1,4793.4787,-0.6809999999999999,0.2618041386916989,61.0,2.8476365636341456,62.0,99.0,99.0,99.0,7.306,0.0,0.0,0.01,_          0.0687173          2 wl:PPN2012   2 gf:PPN2012   2 PPN2012   2 PPN2012   2 PPN2012   2 PPN2012   2 PPN2012   2 PPN2012   2 PPN2012    (47)TiO,"8s2.9s1.3p4.1d1 X,3,2,0,61,0","8s2.11s1.3p4.1d1 C,3,2,0,62,2",0.5,1.0,1.0
TiO 1,4793.4794,0.239,1.3215088777644757,106.0,3.9073038346824465,106.0,99.0,99.0,99.0,7.462000000000001,0.0,0.0,0.001,_                             6 wl:PPN2012   6 gf:PPN2012   6 PPN2012   6 PPN2012   6 PPN2012   6 PPN2012   6 PPN2012   6 PPN2012   6 PPN2012    (48)TiO,"8s2.9s1.3p4.1d1 X,3,2,-,105,5","8s2.3p4.4p1.1d1 B,3,1,+,105,8",0.5,1.0,1.0
TiO 1,4793.483,-0.8059999999999999,0.7052885955367673,71.0,3.2903929356779904,70.0,99.0,99.0,99.0,7.289,0.0,0.0,0.001,_          -1.27687           4 wl:PPN2012   4 gf:PPN2012   4 PPN2012   4 PPN2012   4 PPN2012   4 PPN2012   4 PPN2012   4 PPN2012   4 PPN2012    (50)TiO,"8s2.9s1.3p4.1d1 X,3,2,0,71,3","8s2.11s1.3p4.1d1 C,3,2,0,70,6",0.5,1.0,1.0
TiO 1,4793.4936,0.009000000000000001,0.6280717332891619,44.0,3.2138589783900504,43.0,99.0,99.0,99.0,7.303999999999999,0.0,0.0,0.012,_                             6 wl:PPN2012   6 gf:PPN2012   6 PPN2012   6 PPN2012   6 PPN2012   6 PPN2012   6 PPN2012   6 PPN2012   6 PPN2012    (48)TiO,"8s2.9s1.3p4.1d1 X,3,2,0,44,4","8s2.11s1.3p4.1d1 C,3,2,0,43,7",0.5,1.0,1.0
TiO 1,4793.4997,-0.505,0.8900042204220819,107.0,3.4756957497225236,106.0,99.0,99.0,99.0,7.254,0.0,0.0,0.001,_          -0.171437          2 wl:PPN2012   2 gf:PPN2012   2 PPN2012   2 PPN2012   2 PPN2012   2 PPN2012   2 PPN2012   2 PPN2012   2 PPN2012    (47)TiO,"8s2.9s1.3p4.1d1 X,3,2,0,107,1","8s2.11s1.3p4.1d1 C,3,2,0,106,4",0.5,1.0,1.0
TiO 1,4793.5081,-0.545,0.9484443330790832,57.0,3.534223853964469,57.0,99.0,99.0,99.0,7.482,0.0,0.0,0.001,_                             6 wl:PPN2012   6 gf:PPN2012   6 PPN2012   6 PPN2012   6 PPN2012   6 PPN2012   6 PPN2012   6 PPN2012   6 PPN2012    (48)TiO,"8s2.9s1.3p4.1d1 X,3,2,+,57,6","8s2.3p4.4p1.1d1 B,3,1,-,57,10",0.5,1.0,1.0
TiO 1,4793.5127,0.556,1.449388534734917,129.0,4.032331483158482,128.0,99.0,99.0,99.0,7.211,0.0,0.0,0.002,_          -5.25957           6 wl:PPN2012   6 gf:PPN2012   6 PPN2012   6 PPN2012   6 PPN2012   6 PPN2012   6 PPN2012   6 PPN2012   6 PPN2012    (48)TiO,"8s2.9s1.3p4.1d1 X,3,2,0,129,3","8s2.11s1.3p4.1d1 C,3,2,0,128,7",0.5,1.0,1.0
TiO 1,4793.5349,-0.9329999999999999,0.6378774822876176,45.0,3.223642571412418,44.0,99.0,99.0,99.0,7.303,0.0,0.0,0.001,_                             3 wl:PPN2012   3 gf:PPN2012   3 PPN2012   3 PPN2012   3 PPN2012   3 PPN2012   3 PPN2012   3 PPN2012   3 PPN2012    (46)TiO,"8s2.9s1.3p4.1d1 X,3,2,0,45,4","8s2.11s1.3p4.1d1 C,3,2,0,44,7",0.5,1.0,1.0
TiO 1,4793.5446,-0.456,0.8077210415069337,91.0,3.393289280921411,90.0,99.0,99.0,99.0,7.272,0.0,0.0,0.002,_          -0.355084          3 wl:PPN2012   3 gf:PPN2012   3 PPN2012   3 PPN2012   3 PPN2012   3 PPN2012   3 PPN2012   3 PPN2012   3 PPN2012    (46)TiO,"8s2.9s1.3p4.1d1 X,3,2,0,91,2","8s2.11s1.3p4.1d1 C,3,2,0,90,5",0.5,1.0,1.0
TiO 1,4793.5468,-0.644,0.26922772971048203,60.0,2.8550316010922514,61.0,99.0,99.0,99.0,7.306,0.0,0.0,0.011000000000000001,_          0.0838805          3 wl:PPN2012   3 gf:PPN2012   3 PPN2012   3 PPN2012   3 PPN2012   3 PPN2012   3 PPN2012   3 PPN2012   3 PPN2012    (46)TiO,"8s2.9s1.3p4.1d1 X,3,2,0,61,0","8s2.11s1.3p4.1d1 C,3,2,0,62,2",0.5,1.0,1.0
TiO 1,4793.5526,0.0,0.6353963229262651,43.0,3.2211518528694407,42.0,99.0,99.0,99.0,7.303999999999999,0.0,0.0,0.011000000000000001,_                             6 wl:PPN2012   6 gf:PPN2012   6 PPN2012   6 PPN2012   6 PPN2012   6 PPN2012   6 PPN2012   6 PPN2012   6 PPN2012    (48)TiO,"8s2.9s1.3p4.1d1 X,3,2,0,44,4","8s2.11s1.3p4.1d1 C,3,2,0,43,7",0.5,1.0,1.0
TiO 1,4793.5583,0.132,0.7300167973790733,61.0,3.3157691533267935,62.0,99.0,99.0,99.0,7.292000000000001,0.0,0.0,0.011000000000000001,_                             6 wl:PPN2012   6 gf:PPN2012   6 PPN2012   6 PPN2012   6 PPN2012   6 PPN2012   6 PPN2012   6 PPN2012   6 PPN2012    (48)TiO,"8s2.9s1.3p4.1d1 X,3,2,0,60,4","8s2.11s1.3p4.1d1 C,3,2,0,61,7",0.5,1.0,1.0
V 1,4793.572,-2.456,2.8777401747482876,2.5,5.463485166034678,3.5,0.98,1.18,1.43,7.92,-4.87,-7.53,0.003,_          Kurucz V I 2009   19 wl:K09  19 gf:K09  19 K09  19 K09  19 K09  19 K09  19 K09  19 K09  19 K09    V,3d3.(4F).4s.4p.(3P*) z4F*,3d3.4s.(3F).5s e2F,0.5,1.0,1.0
TiO 1,4793.6036,0.506,1.55093655183085,127.0,4.136664557282187,128.0,99.0,99.0,99.0,7.207999999999999,0.0,0.0,0.001,_                             6 wl:PPN2012   6 gf:PPN2012   6 PPN2012   6 PPN2012   6 PPN2012   6 PPN2012   6 PPN2012   6 PPN2012   6 PPN2012    (48)TiO,"8s2.9s1.3p4.1d1 X,3,2,0,128,4","8s2.11s1.3p4.1d1 C,3,2,0,129,8",0.5,1.0,1.0
TiO 1,4793.6088,-0.7879999999999999,0.6931841795172154,71.0,3.2792214635491423,70.0,99.0,99.0,99.0,7.289,0.0,0.0,0.002,_          0.578517           8 wl:PPN2012   8 gf:PPN2012   8 PPN2012   8 PPN2012   8 PPN2012   8 PPN2012   8 PPN2012   8 PPN2012   8 PPN2012    (49)TiO,"8s2.9s1.3p4.1d1 X,3,2,0,70,3","8s2.11s1.3p4.1d1 C,3,2,0,69,6",0.5,1.0,1.0
TiO 1,4793.6152,-0.629,0.2573513826221765,62.0,2.843067002052187,63.0,99.0,99.0,99.0,7.305,0.0,0.0,0.011000000000000001,_          -0.0112056         3 wl:PPN2012   3 gf:PPN2012   3 PPN2012   3 PPN2012   3 PPN2012   3 PPN2012   3 PPN2012   3 PPN2012   3 PPN2012    (46)TiO,"8s2.9s1.3p4.1d1 X,3,2,0,61,0","8s2.11s1.3p4.1d1 C,3,2,0,62,2",0.5,1.0,1.0
Mo 1,4793.616,-1.546,2.9875596735942427,4.0,5.573281107883114,4.0,0.97,99.0,99.0,0.0,0.0,0.0,0.002,_          Cu 1 - Ba 2 Bell  17 wl:WBb  17 gf:WBb  17 WBb  17 WBb  17 WBb  17 WBb  17 WBb  17 WBb  17 WBb    Mo,4d4.5s2 a3H,* *,0.5,1.0,1.0
TiO 1,4793.6173,-0.8420000000000001,0.13682401335855338,43.0,2.722591061433674,42.0,99.0,99.0,99.0,7.319,0.0,0.0,0.011000000000000001,_          0.0862333          2 wl:PPN2012   2 gf:PPN2012   2 PPN2012   2 PPN2012   2 PPN2012   2 PPN2012   2 PPN2012   2 PPN2012   2 PPN2012    (47)TiO,"8s2.9s1.3p4.1d1 X,3,2,0,43,0","8s2.11s1.3p4.1d1 C,3,2,0,42,2",0.5,1.0,1.0
TiO 1,4793.6185,-0.5329999999999999,0.8967477829145809,87.0,3.4821085843682704,88.0,99.0,99.0,99.0,7.271,0.0,0.0,0.001,_          -0.665931          3 wl:PPN2012   3 gf:PPN2012   3 PPN2012   3 PPN2012   3 PPN2012   3 PPN2012   3 PPN2012   3 PPN2012   3 PPN2012    (46)TiO,"8s2.9s1.3p4.1d1 X,3,2,0,88,3","8s2.11s1.3p4.1d1 C,3,2,0,89,6",0.5,1.0,1.0
TiO 1,4793.6291,-0.5820000000000001,0.8498439906843234,86.0,3.437719885974213,87.0,99.0,99.0,99.0,7.273,0.0,0.0,0.001,_          4.00417            2 wl:PPN2012   2 gf:PPN2012   2 PPN2012   2 PPN2012   2 PPN2012   2 PPN2012   2 PPN2012   2 PPN2012   2 PPN2012    (47)TiO,"8s2.9s1.3p4.1d1 X,3,2,0,85,3","8s2.11s1.3p4.1d1 C,3,2,0,86,6",0.5,1.0,1.0
TiO 1,4793.6359,-0.87,0.7525303934861678,60.0,3.3382409171656615,61.0,99.0,99.0,99.0,7.292000000000001,0.0,0.0,0.001,_                             2 wl:PPN2012   2 gf:PPN2012   2 PPN2012   2 PPN2012   2 PPN2012   2 PPN2012   2 PPN2012   2 PPN2012   2 PPN2012    (47)TiO,"8s2.9s1.3p4.1d1 X,3,2,0,61,4","8s2.11s1.3p4.1d1 C,3,2,0,62,7",0.5,1.0,1.0
TiO 1,4793.6374,0.42700000000000005,0.9074901457359851,90.0,3.4897235697926887,91.0,99.0,99.0,99.0,7.268,0.0,0.0,0.011000000000000001,_          -6.45362           6 wl:PPN2012   6 gf:PPN2012   6 PPN2012   6 PPN2012   6 PPN2012   6 PPN2012   6 PPN2012   6 PPN2012   6 PPN2012    (48)TiO,"8s2.9s1.3p4.1d1 X,3,2,0,90,3","8s2.11s1.3p4.1d1 C,3,2,0,91,6",0.5,1.0,1.0
MgH 1,4793.6545,-2.164,0.35521584160969183,3.5,2.9409163225691906,4.5,99.0,99.0,99.0,7.06,0.0,0.0,0.006,_                            18 wl:KMGH  18 gf:KMGH  18 KMGH  18 KMGH  18 KMGH  18 KMGH  18 KMGH  18 KMGH  18 KMGH    (24)MgH,"4s2.5s1 X,2,0,e,3,2","4s1.5s2/4s2.7s1/4s2.6s1 B,2,0,e,4,2",0.5,1.0,1.0
MgH 1,4793.6545,-2.276,0.35521584160969183,2.5,2.9409163225691906,3.5,99.0,99.0,99.0,7.06,0.0,0.0,0.005,_                            18 wl:KMGH  18 gf:KMGH  18 KMGH  18 KMGH  18 KMGH  18 KMGH  18 KMGH  18 KMGH  18 KMGH    (24)MgH,"4s2.5s1 X,2,0,f,3,2","4s1.5s2/4s2.7s1/4s2.6s1 B,2,0,f,4,2",0.5,1.0,1.0
TiO 1,4793.6598,-0.8640000000000001,0.7463675977714584,61.0,3.332065264289675,62.0,99.0,99.0,99.0,7.292000000000001,0.0,0.0,0.001,_                             2 wl:PPN2012   2 gf:PPN2012   2 PPN2012   2 PPN2012   2 PPN2012   2 PPN2012   2 PPN2012   2 PPN2012   2 PPN2012    (47)TiO,"8s2.9s1.3p4.1d1 X,3,2,0,61,4","8s2.11s1.3p4.1d1 C,3,2,0,62,7",0.5,1.0,1.0
TiO 1,4793.6618,-0.634,0.8492376335681759,97.0,3.4264463748508467,96.0,99.0,99.0,99.0,7.265,0.0,0.0,0.001,_          -15.7877           4 wl:PPN2012   4 gf:PPN2012   4 PPN2012   4 PPN2012   4 PPN2012   4 PPN2012   4 PPN2012   4 PPN2012   4 PPN2012    (50)TiO,"8s2.9s1.3p4.1d1 X,3,2,0,96,2","8s2.11s1.3p4.1d1 C,3,2,0,95,5",0.5,1.0,1.0
TiO 1,4793.6664,0.34600000000000003,1.2728476839255978,60.0,3.8585418416910255,61.0,99.0,99.0,99.0,7.355,0.0,0.0,0.002,_                             6 wl:PPN2012   6 gf:PPN2012   6 PPN2012   6 PPN2012   6 PPN2012   6 PPN2012   6 PPN2012   6 PPN2012   6 PPN2012    (48)TiO,"8s2.9s1.3p4.1d1 a,1,2,0,60,5","8s2.11s1.3p4.1d1 f,1,2,0,61,8",0.5,1.0,1.0
MgH 1,4793.6701,-1.203,0.21598667120283516,7.5,2.8016787212369056,7.5,99.0,99.0,99.0,7.39,0.0,0.0,0.08900000000000001,_                            18 wl:KMGH  18 gf:KMGH  18 KMGH  18 KMGH  18 KMGH  18 KMGH  18 KMGH  18 KMGH  18 KMGH    (24)MgH,"4s2.5s1 X,2,0,e,7,1","4s2.2p1 A,2,1,f,7,2",0.5,1.0,1.0
TiO 1,4793.6829,0.24100000000000002,1.330951390259603,95.0,3.916636621162813,95.0,99.0,99.0,99.0,7.53,0.0,0.0,0.001,_                             6 wl:PPN2012   6 gf:PPN2012   6 PPN2012   6 PPN2012   6 PPN2012   6 PPN2012   6 PPN2012   6 PPN2012   6 PPN2012    (48)TiO,"8s2.9s1.3p4.1d1 X,3,2,-,96,6","8s2.3p4.4p1.1d1 B,3,1,+,96,9",0.5,1.0,1.0
TiO 1,4793.6876,-0.8270000000000001,0.2512561334982488,60.0,2.8369766503040585,61.0,99.0,99.0,99.0,7.307,0.0,0.0,0.006999999999999999,_          0.0700596          8 wl:PPN2012   8 gf:PPN2012   8 PPN2012   8 PPN2012   8 PPN2012   8 PPN2012   8 PPN2012   8 PPN2012   8 PPN2012    (49)TiO,"8s2.9s1.3p4.1d1 X,3,2,0,60,0","8s2.11s1.3p4.1d1 C,3,2,0,61,2",0.5,1.0,1.0
CH 1,4793.711,-2.9789999999999996,0.5209413029052969,9.5,3.1066112837522177,10.5,99.0,99.0,99.0,6.27,0.0,0.0,0.008,_                            37 wl:JLIY  37 gf:JLIY  37 JLIY  37 JLIY  37 JLIY  37 JLIY  37 JLIY  37 JLIY  37 JLIY    (12)CH,"1s2.2s2.3s2.1p1 X,2,1,e,10,1","1s2.2s2.3s1.1p2 A,2,2,e,11,0",0.5,1.0,1.0
TiO 1,4793.7245,-0.99,0.11726519624714712,42.0,2.7029522125228005,41.0,99.0,99.0,99.0,7.32,0.0,0.0,0.008,_          0.0449222          8 wl:PPN2012   8 gf:PPN2012   8 PPN2012   8 PPN2012   8 PPN2012   8 PPN2012   8 PPN2012   8 PPN2012   8 PPN2012    (49)TiO,"8s2.9s1.3p4.1d1 X,3,2,0,41,0","8s2.11s1.3p4.1d1 C,3,2,0,40,2",0.5,1.0,1.0
TiO 1,4793.7406,0.257,0.96836871759673,122.0,3.553783724941554,121.0,99.0,99.0,99.0,7.233,0.0,0.0,0.006,_          -0.443162          6 wl:PPN2012   6 gf:PPN2012   6 PPN2012   6 PPN2012   6 PPN2012   6 PPN2012   6 PPN2012   6 PPN2012   6 PPN2012    (48)TiO,"8s2.9s1.3p4.1d1 X,3,2,0,121,0","8s2.11s1.3p4.1d1 C,3,2,0,120,3",0.5,1.0,1.0
TiO 1,4793.7677,-1.043,0.12605560145726066,39.0,2.711747279538739,38.0,99.0,99.0,99.0,7.321000000000001,0.0,0.0,0.006999999999999999,_          0.0967073          4 wl:PPN2012   4 gf:PPN2012   4 PPN2012   4 PPN2012   4 PPN2012   4 PPN2012   4 PPN2012   4 PPN2012   4 PPN2012    (50)TiO,"8s2.9s1.3p4.1d1 X,3,2,0,40,0","8s2.11s1.3p4.1d1 C,3,2,0,39,2",0.5,1.0,1.0
TiO 1,4793.7731,0.491,0.8857677423866264,107.0,3.471311792484177,106.0,99.0,99.0,99.0,7.254,0.0,0.0,0.013999999999999999,_          -0.171437          6 wl:PPN2012   6 gf:PPN2012   6 PPN2012   6 PPN2012   6 PPN2012   6 PPN2012   6 PPN2012   6 PPN2012   6 PPN2012    (48)TiO,"8s2.9s1.3p4.1d1 X,3,2,0,107,1","8s2.11s1.3p4.1d1 C,3,2,0,106,4",0.5,1.0,1.0
TiO 1,4793.7821,0.326,1.2360066475367317,137.0,3.821332448251476,138.0,99.0,99.0,99.0,7.2010000000000005,0.0,0.0,0.002,_          -0.567338          6 wl:PPN2012   6 gf:PPN2012   6 PPN2012   6 PPN2012   6 PPN2012   6 PPN2012   6 PPN2012   6 PPN2012   6 PPN2012    (48)TiO,"8s2.9s1.3p4.1d1 X,3,2,0,137,0","8s2.11s1.3p4.1d1 C,3,2,0,138,3",0.5,1.0,1.0
TiO 1,4793.8051,-0.505,0.8087481637940356,90.0,3.3942578454720476,89.0,99.0,99.0,99.0,7.273,0.0,0.0,0.002,_          -0.203296          2 wl:PPN2012   2 gf:PPN2012   2 PPN2012   2 PPN2012   2 PPN2012   2 PPN2012   2 PPN2012   2 PPN2012   2 PPN2012    (47)TiO,"8s2.9s1.3p4.1d1 X,3,2,0,91,2","8s2.11s1.3p4.1d1 C,3,2,0,90,5",0.5,1.0,1.0