species,wlcent,gflog,excit,j_lo,e_upp,j_up,lande_lower,lande_upper,lande,gamrad,gamqst,gamvw,depth,reference,term_lower,term_upper,error,atom_number,ionization
TiO 1,4875.7725,-0.4,0.7465090017486731,105.0,3.288672035017105,106.0,99.0,99.0,99.0,7.257000000000001,0.0,0.0,0.003,_          0.0198874          3 wl:PPN2012   3 gf:PPN2012   3 PPN2012   3 PPN2012   3 PPN2012   3 PPN2012   3 PPN2012   3 PPN2012   3 PPN2012    (46)TiO,"8s2.9s1.3p4.1d1 X,3,2,0,105,0","8s2.11s1.3p4.1d1 C,3,2,0,106,2",0.5,1.0,1.0
TiO 1,4875.8265,-0.6890000000000001,0.5086628626661761,87.0,3.0508078562338756,86.0,99.0,99.0,99.0,7.2829999999999995,0.0,0.0,0.004,_          0.0392700          4 wl:PPN2012   4 gf:PPN2012   4 PPN2012   4 PPN2012   4 PPN2012   4 PPN2012   4 PPN2012   4 PPN2012   4 PPN2012    (50)TiO,"8s2.9s1.3p4.1d1 X,3,2,0,87,0","8s2.11s1.3p4.1d1 C,3,2,0,86,2",0.5,1.0,1.0
TiO 1,4875.8292,0.125,0.8027409062550523,75.0,3.3448640290103184,74.0,99.0,99.0,99.0,7.388999999999999,0.0,0.0,0.008,_                             6 wl:PPN2012   6 gf:PPN2012   6 PPN2012   6 PPN2012   6 PPN2012   6 PPN2012   6 PPN2012   6 PPN2012   6 PPN2012    (48)TiO,"8s2.9s1.3p4.1d1 a,1,2,0,75,0","8s2.11s1.3p4.1d1 f,1,2,0,74,2",0.5,1.0,1.0
TiO 1,4875.8313,-0.442,0.5992414522814581,85.0,3.1413724852285227,86.0,99.0,99.0,99.0,7.282,0.0,0.0,0.005,_          0.0173690          2 wl:PPN2012   2 gf:PPN2012   2 PPN2012   2 PPN2012   2 PPN2012   2 PPN2012   2 PPN2012   2 PPN2012   2 PPN2012    (47)TiO,"8s2.9s1.3p4.1d1 X,3,2,0,84,1","8s2.11s1.3p4.1d1 C,3,2,0,85,3",0.5,1.0,1.0
Nd 2,4875.838,-1.09,0.7421173326932442,7.5,3.2842360044158214,6.5,1.21,1.15,1.38,0.0,0.0,0.0,0.47200000000000003,_          La1 to Lu 2 Bell   1 wl:MC   1 gf:MC   1 MC   1 MC   1 MC   1 MC   1 MC   1 MC   1 MC    Nd+,4f4.(5I).6s 4I,* *,0.5,1.0,2.0
TiO 1,4875.8577,-0.69,0.4288448119556474,65.0,2.970995260828036,64.0,99.0,99.0,99.0,7.3020000000000005,0.0,0.0,0.005,_          0.0810789          8 wl:PPN2012   8 gf:PPN2012   8 PPN2012   8 PPN2012   8 PPN2012   8 PPN2012   8 PPN2012   8 PPN2012   8 PPN2012    (49)TiO,"8s2.9s1.3p4.1d1 X,3,2,0,66,1","8s2.11s1.3p4.1d1 C,3,2,0,65,3",0.5,1.0,1.0
TiO 1,4875.87,-0.585,0.5986528497023883,84.0,3.140824847028297,85.0,99.0,99.0,99.0,7.2829999999999995,0.0,0.0,0.003,_          0.134533           8 wl:PPN2012   8 gf:PPN2012   8 PPN2012   8 PPN2012   8 PPN2012   8 PPN2012   8 PPN2012   8 PPN2012   8 PPN2012    (49)TiO,"8s2.9s1.3p4.1d1 X,3,2,0,84,1","8s2.11s1.3p4.1d1 C,3,2,0,85,3",0.5,1.0,1.0
MgH 1,4875.8709,-2.113,0.6794110849807526,5.5,3.2215123989156838,6.5,99.0,99.0,99.0,7.06,0.0,0.0,0.002,_                            18 wl:KMGH  18 gf:KMGH  18 KMGH  18 KMGH  18 KMGH  18 KMGH  18 KMGH  18 KMGH  18 KMGH    (24)MgH,"4s2.5s1 X,2,0,e,5,4","4s1.5s2/4s2.7s1/4s2.6s1 B,2,0,e,6,5",0.5,1.0,1.0
MgH 1,4875.8709,-2.186,0.6794110849807526,4.5,3.2215123989156838,5.5,99.0,99.0,99.0,7.06,0.0,0.0,0.002,_                            18 wl:KMGH  18 gf:KMGH  18 KMGH  18 KMGH  18 KMGH  18 KMGH  18 KMGH  18 KMGH  18 KMGH    (24)MgH,"4s2.5s1 X,2,0,f,5,4","4s1.5s2/4s2.7s1/4s2.6s1 B,2,0,f,6,5",0.5,1.0,1.0
Fe 1,4875.8768,-2.02,3.332019514120808,5.0,5.874117728450803,4.0,1.4,1.33,1.53,7.91,-5.27,-7.204,0.8079999999999999,N D        Kurucz Fe I 2014   5 wl:K14  35 gf:FMW   5 K14   5 K14   5 K14   5 K14   5 K14  25 BPM   5 K14    Fe,3d6.(5D).4s.4p.(3P*) z5F*,3d7.(4F).5s e5F,0.5,1.0,1.0
TiO 1,4875.8839,-0.688,0.7416808959197297,53.0,3.28377540312222,52.0,99.0,99.0,99.0,7.393,0.0,0.0,0.002,_                             3 wl:PPN2012   3 gf:PPN2012   3 PPN2012   3 PPN2012   3 PPN2012   3 PPN2012   3 PPN2012   3 PPN2012   3 PPN2012    (46)TiO,"8s2.9s1.3p4.1d1 a,1,2,0,53,1","8s2.11s1.3p4.1d1 f,1,2,0,52,3",0.5,1.0,1.0
TiO 1,4875.8957,-0.494,0.43737853268173854,67.0,2.9795469468643407,66.0,99.0,99.0,99.0,7.301,0.0,0.0,0.008,_          0.153450           3 wl:PPN2012   3 gf:PPN2012   3 PPN2012   3 PPN2012   3 PPN2012   3 PPN2012   3 PPN2012   3 PPN2012   3 PPN2012    (46)TiO,"8s2.9s1.3p4.1d1 X,3,2,0,67,1","8s2.11s1.3p4.1d1 C,3,2,0,66,3",0.5,1.0,1.0
TiO 1,4875.897,0.156,1.1998723706671244,75.0,3.741960120730852,75.0,99.0,99.0,99.0,7.54,0.0,0.0,0.002,_                             6 wl:PPN2012   6 gf:PPN2012   6 PPN2012   6 PPN2012   6 PPN2012   6 PPN2012   6 PPN2012   6 PPN2012   6 PPN2012    (48)TiO,"8s2.9s1.3p4.1d1 X,3,2,-,74,7","8s2.3p4.4p1.1d1 B,3,1,+,74,10",0.5,1.0,1.0
TiO 1,4875.8984,-1.044,0.3487945636400967,37.0,2.8908523715201353,36.0,99.0,99.0,99.0,7.318,0.0,0.0,0.003,_          -0.0559575         8 wl:PPN2012   8 gf:PPN2012   8 PPN2012   8 PPN2012   8 PPN2012   8 PPN2012   8 PPN2012   8 PPN2012   8 PPN2012    (49)TiO,"8s2.9s1.3p4.1d1 X,3,2,0,37,2","8s2.11s1.3p4.1d1 C,3,2,0,36,4",0.5,1.0,1.0
TiO 1,4875.9057,-0.6809999999999999,0.7891010327387712,41.0,3.331184232582452,42.0,99.0,99.0,99.0,7.39,0.0,0.0,0.001,_                             3 wl:PPN2012   3 gf:PPN2012   3 PPN2012   3 PPN2012   3 PPN2012   3 PPN2012   3 PPN2012   3 PPN2012   3 PPN2012    (46)TiO,"8s2.9s1.3p4.1d1 a,1,2,0,41,2","8s2.11s1.3p4.1d1 f,1,2,0,42,4",0.5,1.0,1.0
TiO 1,4875.9077,0.457,0.41914613571012693,67.0,2.961285686371558,66.0,99.0,99.0,99.0,7.301,0.0,0.0,0.073,_          0.110150           6 wl:PPN2012   6 gf:PPN2012   6 PPN2012   6 PPN2012   6 PPN2012   6 PPN2012   6 PPN2012   6 PPN2012   6 PPN2012    (48)TiO,"8s2.9s1.3p4.1d1 X,3,2,0,66,1","8s2.11s1.3p4.1d1 C,3,2,0,65,3",0.5,1.0,1.0
TiO 1,4875.9175,-0.15,1.0485429625081706,80.0,3.590620049930916,81.0,99.0,99.0,99.0,7.271,0.0,0.0,0.002,_                             6 wl:PPN2012   6 gf:PPN2012   6 PPN2012   6 PPN2012   6 PPN2012   6 PPN2012   6 PPN2012   6 PPN2012   6 PPN2012    (48)TiO,"8s2.9s1.3p4.1d1 X,3,2,0,81,5","8s2.11s1.3p4.1d1 C,3,2,0,82,8",0.5,1.0,1.0
TiO 1,4875.9206,-0.59,0.603618020061635,83.0,3.145727430164661,84.0,99.0,99.0,99.0,7.2829999999999995,0.0,0.0,0.003,_          0.0651816          8 wl:PPN2012   8 gf:PPN2012   8 PPN2012   8 PPN2012   8 PPN2012   8 PPN2012   8 PPN2012   8 PPN2012   8 PPN2012    (49)TiO,"8s2.9s1.3p4.1d1 X,3,2,0,84,1","8s2.11s1.3p4.1d1 C,3,2,0,85,3",0.5,1.0,1.0
TiO 1,4875.924,0.58,1.2508611942356276,131.0,3.79245962826562,130.0,99.0,99.0,99.0,7.215,0.0,0.0,0.004,_          -0.911745          6 wl:PPN2012   6 gf:PPN2012   6 PPN2012   6 PPN2012   6 PPN2012   6 PPN2012   6 PPN2012   6 PPN2012   6 PPN2012    (48)TiO,"8s2.9s1.3p4.1d1 X,3,2,0,131,1","8s2.11s1.3p4.1d1 C,3,2,0,130,4",0.5,1.0,1.0
TiO 1,4875.9351,-0.15,1.043373181027839,81.0,3.5854411060183913,82.0,99.0,99.0,99.0,7.271,0.0,0.0,0.002,_                             6 wl:PPN2012   6 gf:PPN2012   6 PPN2012   6 PPN2012   6 PPN2012   6 PPN2012   6 PPN2012   6 PPN2012   6 PPN2012    (48)TiO,"8s2.9s1.3p4.1d1 X,3,2,0,81,5","8s2.11s1.3p4.1d1 C,3,2,0,82,8",0.5,1.0,1.0
TiO 1,4875.9517,0.23800000000000002,0.7708458102764054,38.0,3.3129049943810362,39.0,99.0,99.0,99.0,7.391,0.0,0.0,0.012,_                             6 wl:PPN2012   6 gf:PPN2012   6 PPN2012   6 PPN2012   6 PPN2012   6 PPN2012   6 PPN2012   6 PPN2012   6 PPN2012    (48)TiO,"8s2.9s1.3p4.1d1 a,1,2,0,38,2","8s2.11s1.3p4.1d1 f,1,2,0,39,4",0.5,1.0,1.0
TiO 1,4875.977,-0.895,0.3559923050447682,38.0,2.898012582908233,37.0,99.0,99.0,99.0,7.318,0.0,0.0,0.004,_          -0.0493158         2 wl:PPN2012   2 gf:PPN2012   2 PPN2012   2 PPN2012   2 PPN2012   2 PPN2012   2 PPN2012   2 PPN2012   2 PPN2012    (47)TiO,"8s2.9s1.3p4.1d1 X,3,2,0,38,2","8s2.11s1.3p4.1d1 C,3,2,0,37,4",0.5,1.0,1.0
TiO 1,4875.996,-0.895,0.45672128253221356,53.0,2.998775408081588,54.0,99.0,99.0,99.0,7.308,0.0,0.0,0.003,_          0.0345761          8 wl:PPN2012   8 gf:PPN2012   8 PPN2012   8 PPN2012   8 PPN2012   8 PPN2012   8 PPN2012   8 PPN2012   8 PPN2012    (49)TiO,"8s2.9s1.3p4.1d1 X,3,2,0,54,2","8s2.11s1.3p4.1d1 C,3,2,0,55,4",0.5,1.0,1.0
TiO 1,4876.0079,-0.899,0.442268878577812,55.0,2.9843042205212695,56.0,99.0,99.0,99.0,7.307,0.0,0.0,0.003,_          0.0104962          4 wl:PPN2012   4 gf:PPN2012   4 PPN2012   4 PPN2012   4 PPN2012   4 PPN2012   4 PPN2012   4 PPN2012   4 PPN2012    (50)TiO,"8s2.9s1.3p4.1d1 X,3,2,0,54,2","8s2.11s1.3p4.1d1 C,3,2,0,55,4",0.5,1.0,1.0
TiO 1,4876.0202,-0.512,0.9618176281723837,38.0,3.503841154421822,38.0,99.0,99.0,99.0,7.48,0.0,0.0,0.001,_                             6 wl:PPN2012   6 gf:PPN2012   6 PPN2012   6 PPN2012   6 PPN2012   6 PPN2012   6 PPN2012   6 PPN2012   6 PPN2012    (48)TiO,"8s2.9s1.3p4.1d1 X,3,2,-,39,7","8s2.3p4.4p1.1d1 B,3,1,+,39,11",0.5,1.0,1.0
TiO 1,4876.021,-0.75,0.46706338716892504,54.0,3.0091046555570213,55.0,99.0,99.0,99.0,7.307,0.0,0.0,0.004,_          0.0349432          2 wl:PPN2012   2 gf:PPN2012   2 PPN2012   2 PPN2012   2 PPN2012   2 PPN2012   2 PPN2012   2 PPN2012   2 PPN2012    (47)TiO,"8s2.9s1.3p4.1d1 X,3,2,0,55,2","8s2.11s1.3p4.1d1 C,3,2,0,56,4",0.5,1.0,1.0
TiO 1,4876.0302,0.131,1.3505761049719647,124.0,3.892594349494591,124.0,99.0,99.0,99.0,7.315,0.0,0.0,0.001,_                             6 wl:PPN2012   6 gf:PPN2012   6 PPN2012   6 PPN2012   6 PPN2012   6 PPN2012   6 PPN2012   6 PPN2012   6 PPN2012    (48)TiO,"8s2.9s1.3p4.1d1 X,3,2,+,123,3","8s2.3p4.4p1.1d1 B,3,1,-,123,6",0.5,1.0,1.0
TiO 1,4876.0461,-0.588,0.7392159784882458,104.0,3.2813534958088386,105.0,99.0,99.0,99.0,7.2589999999999995,0.0,0.0,0.002,_          0.244504           8 wl:PPN2012   8 gf:PPN2012   8 PPN2012   8 PPN2012   8 PPN2012   8 PPN2012   8 PPN2012   8 PPN2012   8 PPN2012    (49)TiO,"8s2.9s1.3p4.1d1 X,3,2,0,105,0","8s2.11s1.3p4.1d1 C,3,2,0,106,2",0.5,1.0,1.0
TiO 1,4876.0664,0.43200000000000005,0.9347163563920797,76.0,3.47671576771511,77.0,99.0,99.0,99.0,7.38,0.0,0.0,0.01,_                             6 wl:PPN2012   6 gf:PPN2012   6 PPN2012   6 PPN2012   6 PPN2012   6 PPN2012   6 PPN2012   6 PPN2012   6 PPN2012    (48)TiO,"8s2.9s1.3p4.1d1 a,1,2,0,76,1","8s2.11s1.3p4.1d1 f,1,2,0,77,3",0.5,1.0,1.0
TiO 1,4876.0666,-0.445,0.7425279807536851,105.0,3.284537657968266,106.0,99.0,99.0,99.0,7.257000000000001,0.0,0.0,0.003,_          0.0198874          2 wl:PPN2012   2 gf:PPN2012   2 PPN2012   2 PPN2012   2 PPN2012   2 PPN2012   2 PPN2012   2 PPN2012   2 PPN2012    (47)TiO,"8s2.9s1.3p4.1d1 X,3,2,0,105,0","8s2.11s1.3p4.1d1 C,3,2,0,106,2",0.5,1.0,1.0
Sr 1,4876.07,-0.55,1.7983082108286808,1.0,4.3403033942905775,1.0,99.0,99.0,99.0,0.0,0.0,0.0,0.37799999999999995,_          Sr 1 (GC+NIST)    62 wl:GC  62 gf:GC  62 GC  62 GC  17 CB  17 CB  17 CB  17 CB  62 GC    Sr,5s.5p 3P*,5s.5d 3D,0.5,1.0,1.0
TiO 1,4876.0809,-0.215,0.6873944026590146,14.0,3.2293862633444195,13.0,99.0,99.0,99.0,7.398,0.0,0.0,0.006,_                             6 wl:PPN2012   6 gf:PPN2012   6 PPN2012   6 PPN2012   6 PPN2012   6 PPN2012   6 PPN2012   6 PPN2012   6 PPN2012    (48)TiO,"8s2.9s1.3p4.1d1 a,1,2,0,14,2","8s2.11s1.3p4.1d1 f,1,2,0,13,4",0.5,1.0,1.0
TiO 1,4876.0965,0.26,0.45264326869954463,56.0,2.99462627691325,57.0,99.0,99.0,99.0,7.306,0.0,0.0,0.042,_          -0.00119984        6 wl:PPN2012   6 gf:PPN2012   6 PPN2012   6 PPN2012   6 PPN2012   6 PPN2012   6 PPN2012   6 PPN2012   6 PPN2012    (48)TiO,"8s2.9s1.3p4.1d1 X,3,2,0,55,2","8s2.11s1.3p4.1d1 C,3,2,0,56,4",0.5,1.0,1.0
TiO 1,4876.0993,-1.062,0.3354406844721199,37.0,2.877432321985969,36.0,99.0,99.0,99.0,7.318,0.0,0.0,0.003,_          0.0180128          4 wl:PPN2012   4 gf:PPN2012   4 PPN2012   4 PPN2012   4 PPN2012   4 PPN2012   4 PPN2012   4 PPN2012   4 PPN2012    (50)TiO,"8s2.9s1.3p4.1d1 X,3,2,0,36,2","8s2.11s1.3p4.1d1 C,3,2,0,35,4",0.5,1.0,1.0
TiO 1,4876.1018,-0.527,0.5115579432707824,88.0,3.0535233581268666,87.0,99.0,99.0,99.0,7.282,0.0,0.0,0.006,_          -0.0298065         2 wl:PPN2012   2 gf:PPN2012   2 PPN2012   2 PPN2012   2 PPN2012   2 PPN2012   2 PPN2012   2 PPN2012   2 PPN2012    (47)TiO,"8s2.9s1.3p4.1d1 X,3,2,0,87,0","8s2.11s1.3p4.1d1 C,3,2,0,86,2",0.5,1.0,1.0
Nd 2,4876.11,-1.23,0.5594786910839492,6.5,3.101453541137461,5.5,1.11,1.12,1.08,0.0,0.0,0.0,0.556,E 0.05     Wisconsin REE ex  11 wl:HLSC  11 gf:HLSC  11 HLSC  11 HLSC  11 HLSC  11 HLSC  11 HLSC  11 HLSC  11 HLSC    Nd+,4f4.(5I).6s 4I,* *,1.1220184543019633,1.0,2.0
TiO 1,4876.1174,0.255,0.7320212003058938,52.0,3.2739940418154068,51.0,99.0,99.0,99.0,7.394,0.0,0.0,0.013999999999999999,_                             6 wl:PPN2012   6 gf:PPN2012   6 PPN2012   6 PPN2012   6 PPN2012   6 PPN2012   6 PPN2012   6 PPN2012   6 PPN2012    (48)TiO,"8s2.9s1.3p4.1d1 a,1,2,0,52,1","8s2.11s1.3p4.1d1 f,1,2,0,51,3",0.5,1.0,1.0
TiO 1,4876.1254,0.268,1.0771185675758512,99.0,3.6190871936226494,100.0,99.0,99.0,99.0,7.37,0.0,0.0,0.004,_                             6 wl:PPN2012   6 gf:PPN2012   6 PPN2012   6 PPN2012   6 PPN2012   6 PPN2012   6 PPN2012   6 PPN2012   6 PPN2012    (48)TiO,"8s2.9s1.3p4.1d1 a,1,2,0,99,0","8s2.11s1.3p4.1d1 f,1,2,0,100,2",0.5,1.0,1.0
TiO 1,4876.1408,-0.8809999999999999,0.4572394000950215,55.0,2.9992393569485207,56.0,99.0,99.0,99.0,7.307,0.0,0.0,0.003,_          0.0755430          8 wl:PPN2012   8 gf:PPN2012   8 PPN2012   8 PPN2012   8 PPN2012   8 PPN2012   8 PPN2012   8 PPN2012   8 PPN2012    (49)TiO,"8s2.9s1.3p4.1d1 X,3,2,0,55,2","8s2.11s1.3p4.1d1 C,3,2,0,56,4",0.5,1.0,1.0
TiO 1,4876.1543,-0.685,0.4635643919368613,57.0,3.00551047765656,58.0,99.0,99.0,99.0,7.305,0.0,0.0,0.005,_          -0.0144789         3 wl:PPN2012   3 gf:PPN2012   3 PPN2012   3 PPN2012   3 PPN2012   3 PPN2012   3 PPN2012   3 PPN2012   3 PPN2012    (46)TiO,"8s2.9s1.3p4.1d1 X,3,2,0,56,2","8s2.11s1.3p4.1d1 C,3,2,0,57,4",0.5,1.0,1.0
TiO 1,4876.1664,-0.17600000000000002,0.8883816888234694,66.0,3.430328939994624,65.0,99.0,99.0,99.0,7.2860000000000005,0.0,0.0,0.003,_                             6 wl:PPN2012   6 gf:PPN2012   6 PPN2012   6 PPN2012   6 PPN2012   6 PPN2012   6 PPN2012   6 PPN2012   6 PPN2012    (48)TiO,"8s2.9s1.3p4.1d1 X,3,2,0,65,5","8s2.11s1.3p4.1d1 C,3,2,0,64,8",0.5,1.0,1.0
TiO 1,4876.1754,0.102,0.3424557227633995,38.0,2.884409904651193,37.0,99.0,99.0,99.0,7.318,0.0,0.0,0.044000000000000004,_          0.0222144          6 wl:PPN2012   6 gf:PPN2012   6 PPN2012   6 PPN2012   6 PPN2012   6 PPN2012   6 PPN2012   6 PPN2012   6 PPN2012    (48)TiO,"8s2.9s1.3p4.1d1 X,3,2,0,37,2","8s2.11s1.3p4.1d1 C,3,2,0,36,4",0.5,1.0,1.0
Pr 2,4876.1849,-4.7139999999999995,0.6333057873095727,7.0,3.1752433632498938,6.0,0.91,1.12,0.28,0.0,0.0,0.0,0.14800000000000002,"_          Pr 2: DREAM data  52 wl:BLQS  52 gf:BLQS  52 BLQS  52 BLQS  52 BLQS  52 BLQS  52 BLQS  52 BLQS  52 BLQS   hfs:GINo,RIRS Pr+",4f3.(4I*).5d 5L*, ,0.5,1.0,2.0
Fe 1,4876.186,-3.38,3.2514817351439658,3.0,5.793418770017249,2.0,1.34,1.44,1.23,7.88,-6.09,-7.797999999999999,0.536,N D        Kurucz Fe I 2014   5 wl:K14  35 gf:FMW   5 K14   5 K14   5 K14   5 K14   5 K14  25 BPM   5 K14    Fe,3d7.(2D2).4s a3D,3d6.(3P2).4s.4p.(3P*) y3P*,0.5,1.0,1.0
Pr 2,4876.1862,-4.531000000000001,0.6333209361947565,7.0,3.175257863325772,6.0,0.91,1.12,0.28,0.0,0.0,0.0,0.14800000000000002,"_          Pr 2: DREAM data  52 wl:BLQS  52 gf:BLQS  52 BLQS  52 BLQS  52 BLQS  52 BLQS  52 BLQS  52 BLQS  52 BLQS   hfs:GINo,RIRS Pr+",4f3.(4I*).5d 5L*, ,0.5,1.0,2.0
Pr 2,4876.1884,-4.593,0.6333388395128712,7.0,3.175274594125331,6.0,0.91,1.12,0.28,0.0,0.0,0.0,0.14800000000000002,"_          Pr 2: DREAM data  52 wl:BLQS  52 gf:BLQS  52 BLQS  52 BLQS  52 BLQS  52 BLQS  52 BLQS  52 BLQS  52 BLQS   hfs:GINo,RIRS Pr+",4f3.(4I*).5d 5L*, ,0.5,1.0,2.0
Pr 2,4876.1917,-4.9030000000000005,0.6333594971399326,7.0,3.1752935557725555,6.0,0.91,1.12,0.28,0.0,0.0,0.0,0.14800000000000002,"_          Pr 2: DREAM data  52 wl:BLQS  52 gf:BLQS  52 BLQS  52 BLQS  52 BLQS  52 BLQS  52 BLQS  52 BLQS  52 BLQS   hfs:GINo,RIRS Pr+",4f3.(4I*).5d 5L*, ,0.5,1.0,2.0
TiO 1,4876.1923,-0.736,0.7824071507141986,40.0,3.324340924803088,41.0,99.0,99.0,99.0,7.391,0.0,0.0,0.001,_                             2 wl:PPN2012   2 gf:PPN2012   2 PPN2012   2 PPN2012   2 PPN2012   2 PPN2012   2 PPN2012   2 PPN2012   2 PPN2012    (47)TiO,"8s2.9s1.3p4.1d1 a,1,2,0,40,2","8s2.11s1.3p4.1d1 f,1,2,0,41,4",0.5,1.0,1.0
TiO 1,4876.1999,-0.512,0.9618176281723837,38.0,3.5037474223685345,38.0,99.0,99.0,99.0,7.48,0.0,0.0,0.001,_                             6 wl:PPN2012   6 gf:PPN2012   6 PPN2012   6 PPN2012   6 PPN2012   6 PPN2012   6 PPN2012   6 PPN2012   6 PPN2012    (48)TiO,"8s2.9s1.3p4.1d1 X,3,2,+,39,7","8s2.3p4.4p1.1d1 B,3,1,-,39,11",0.5,1.0,1.0
TiO 1,4876.2072,0.215,0.9751040847337762,87.0,3.517030097411904,86.0,99.0,99.0,99.0,7.27,0.0,0.0,0.005,_                             6 wl:PPN2012   6 gf:PPN2012   6 PPN2012   6 PPN2012   6 PPN2012   6 PPN2012   6 PPN2012   6 PPN2012   6 PPN2012    (48)TiO,"8s2.9s1.3p4.1d1 X,3,2,0,86,4","8s2.11s1.3p4.1d1 C,3,2,0,85,7",0.5,1.0,1.0
TiO 1,4876.2084,0.156,1.1998723706671244,75.0,3.741797701432166,75.0,99.0,99.0,99.0,7.54,0.0,0.0,0.002,_                             6 wl:PPN2012   6 gf:PPN2012   6 PPN2012   6 PPN2012   6 PPN2012   6 PPN2012   6 PPN2012   6 PPN2012   6 PPN2012    (48)TiO,"8s2.9s1.3p4.1d1 X,3,2,+,74,7","8s2.3p4.4p1.1d1 B,3,1,-,74,10",0.5,1.0,1.0
Pr 2,4876.2085,-3.14,0.6333057873095727,7.0,3.175231093897696,6.0,0.91,1.12,0.28,0.0,0.0,0.0,0.14800000000000002,"_          Pr 2: DREAM data  52 wl:BLQS  52 gf:BLQS  52 BLQS  52 BLQS  52 BLQS  52 BLQS  52 BLQS  52 BLQS  52 BLQS   hfs:GINo,RIRS Pr+",4f3.(4I*).5d 5L*, ,0.5,1.0,2.0
TiO 1,4876.2106,-0.8290000000000001,0.6633878136428244,64.0,3.2053120037532494,64.0,99.0,99.0,99.0,7.291,0.0,0.0,0.002,_                             6 wl:PPN2012   6 gf:PPN2012   6 PPN2012   6 PPN2012   6 PPN2012   6 PPN2012   6 PPN2012   6 PPN2012   6 PPN2012    (48)TiO,"8s2.9s1.3p4.1d1 X,3,2,-,65,3","8s2.3p4.4p1.1d1 B,3,1,+,65,7",0.5,1.0,1.0
Pr 2,4876.214,-2.9419999999999997,0.6333209361947565,7.0,3.1752433632498938,6.0,0.91,1.12,0.28,0.0,0.0,0.0,0.14800000000000002,"_          Pr 2: DREAM data  52 wl:BLQS  52 gf:BLQS  52 BLQS  52 BLQS  52 BLQS  52 BLQS  52 BLQS  52 BLQS  52 BLQS   hfs:GINo,RIRS Pr+",4f3.(4I*).5d 5L*, ,0.5,1.0,2.0
TiO 1,4876.2174,-0.8390000000000001,0.34987935097744177,39.0,2.891813744987319,38.0,99.0,99.0,99.0,7.317,0.0,0.0,0.005,_          0.0261779          3 wl:PPN2012   3 gf:PPN2012   3 PPN2012   3 PPN2012   3 PPN2012   3 PPN2012   3 PPN2012   3 PPN2012   3 PPN2012    (46)TiO,"8s2.9s1.3p4.1d1 X,3,2,0,38,2","8s2.11s1.3p4.1d1 C,3,2,0,37,4",0.5,1.0,1.0
Pr 2,4876.2205,-2.891,0.6333388395128712,7.0,3.175257863325772,6.0,0.91,1.12,0.28,0.0,0.0,0.0,0.14800000000000002,"_          Pr 2: DREAM data  52 wl:BLQS  52 gf:BLQS  52 BLQS  52 BLQS  52 BLQS  52 BLQS  52 BLQS  52 BLQS  52 BLQS   hfs:GINo,RIRS Pr+",4f3.(4I*).5d 5L*, ,0.5,1.0,2.0
TiO 1,4876.2266,-0.919,0.3588278980314285,36.0,2.9007414750945504,35.0,99.0,99.0,99.0,7.318,0.0,0.0,0.004,_          -0.00425324        2 wl:PPN2012   2 gf:PPN2012   2 PPN2012   2 PPN2012   2 PPN2012   2 PPN2012   2 PPN2012   2 PPN2012   2 PPN2012    (47)TiO,"8s2.9s1.3p4.1d1 X,3,2,0,37,2","8s2.11s1.3p4.1d1 C,3,2,0,36,4",0.5,1.0,1.0
Pr 2,4876.2277,-2.049,0.6333057873095727,7.0,3.175221055393164,6.0,0.91,1.12,0.28,0.0,0.0,0.0,0.14800000000000002,"_          Pr 2: DREAM data  52 wl:BLQS  52 gf:BLQS  52 BLQS  52 BLQS  52 BLQS  52 BLQS  52 BLQS  52 BLQS  52 BLQS   hfs:GINo,RIRS Pr+",4f3.(4I*).5d 5L*, ,0.5,1.0,2.0
Pr 2,4876.2281,-2.938,0.6333594971399326,7.0,3.175274594125331,6.0,0.91,1.12,0.28,0.0,0.0,0.0,0.14800000000000002,"_          Pr 2: DREAM data  52 wl:BLQS  52 gf:BLQS  52 BLQS  52 BLQS  52 BLQS  52 BLQS  52 BLQS  52 BLQS  52 BLQS   hfs:GINo,RIRS Pr+",4f3.(4I*).5d 5L*, ,0.5,1.0,2.0
TiO 1,4876.2314,-1.069,0.35192990082256076,35.0,2.8938397707581784,34.0,99.0,99.0,99.0,7.319,0.0,0.0,0.003,_          -0.00668299        8 wl:PPN2012   8 gf:PPN2012   8 PPN2012   8 PPN2012   8 PPN2012   8 PPN2012   8 PPN2012   8 PPN2012   8 PPN2012    (49)TiO,"8s2.9s1.3p4.1d1 X,3,2,0,36,2","8s2.11s1.3p4.1d1 C,3,2,0,35,4",0.5,1.0,1.0
Pr 2,4876.2366,-3.136,0.6333829091999249,7.0,3.1752935557725555,6.0,0.91,1.12,0.28,0.0,0.0,0.0,0.14800000000000002,"_          Pr 2: DREAM data  52 wl:BLQS  52 gf:BLQS  52 BLQS  52 BLQS  52 BLQS  52 BLQS  52 BLQS  52 BLQS  52 BLQS   hfs:GINo,RIRS Pr+",4f3.(4I*).5d 5L*, ,0.5,1.0,2.0