species,wlcent,gflog,excit,j_lo,e_upp,j_up,lande_lower,lande_upper,lande,gamrad,gamqst,gamvw,depth,reference,term_lower,term_upper,error,atom_number,ionization
TiO 1,4832.2427,-0.7829999999999999,0.3340501273069739,53.0,2.899151625730391,54.0,99.0,99.0,99.0,7.31,0.0,0.0,0.006,_          0.0922424          4 wl:PPN2012   4 gf:PPN2012   4 PPN2012   4 PPN2012   4 PPN2012   4 PPN2012   4 PPN2012   4 PPN2012   4 PPN2012    (50)TiO,"8s2.9s1.3p4.1d1 X,3,2,0,54,1","8s2.11s1.3p4.1d1 C,3,2,0,55,3",0.5,1.0,1.0
TiO 1,4832.2504,0.14800000000000002,1.3246136900375225,73.0,3.8896622472086197,73.0,99.0,99.0,99.0,7.577999999999999,0.0,0.0,0.001,_                             6 wl:PPN2012   6 gf:PPN2012   6 PPN2012   6 PPN2012   6 PPN2012   6 PPN2012   6 PPN2012   6 PPN2012   6 PPN2012    (48)TiO,"8s2.9s1.3p4.1d1 X,3,2,+,74,8","8s2.3p4.4p1.1d1 B,3,1,-,74,11",0.5,1.0,1.0
Nd 2,4832.274,-0.92,0.5594780711629619,6.5,3.124513981945917,5.5,1.11,1.14,1.03,0.0,0.0,0.0,0.7,_          La1 to Lu 2 Bell   1 wl:MC   1 gf:MC   1 MC   1 MC   1 MC   1 MC   1 MC   1 MC   1 MC    Nd+,4f4.(5I).6s 4I,* *,0.5,1.0,2.0
CH 1,4832.275,-3.091,0.9715969561383584,1.5,3.536632123016129,2.5,99.0,99.0,99.0,6.27,0.0,0.0,0.002,_                            37 wl:JLIY  37 gf:JLIY  37 JLIY  37 JLIY  37 JLIY  37 JLIY  37 JLIY  37 JLIY  37 JLIY    (12)CH,"1s2.2s2.3s2.1p1 X,2,1,f,1,3","1s2.2s2.3s1.1p2 A,2,2,f,2,2",0.5,1.0,1.0
CH 1,4832.279,-3.091,0.971598691917123,1.5,3.536632123016129,2.5,99.0,99.0,99.0,6.27,0.0,0.0,0.002,_                            37 wl:JLIY  37 gf:JLIY  37 JLIY  37 JLIY  37 JLIY  37 JLIY  37 JLIY  37 JLIY  37 JLIY    (12)CH,"1s2.2s2.3s2.1p1 X,2,1,e,1,3","1s2.2s2.3s1.1p2 A,2,2,e,2,2",0.5,1.0,1.0
TiO 1,4832.2794,-0.852,0.7196071585499998,72.0,3.2846401928995737,72.0,99.0,99.0,99.0,7.301,0.0,0.0,0.001,_                             6 wl:PPN2012   6 gf:PPN2012   6 PPN2012   6 PPN2012   6 PPN2012   6 PPN2012   6 PPN2012   6 PPN2012   6 PPN2012    (48)TiO,"8s2.9s1.3p4.1d1 X,3,2,-,72,3","8s2.3p4.4p1.1d1 B,3,1,+,72,7",0.5,1.0,1.0
TiO 1,4832.291,-0.742,0.24196060426922225,37.0,2.807031243025889,36.0,99.0,99.0,99.0,7.32,0.0,0.0,0.009000000000000001,_          0.0824251          3 wl:PPN2012   3 gf:PPN2012   3 PPN2012   3 PPN2012   3 PPN2012   3 PPN2012   3 PPN2012   3 PPN2012   3 PPN2012    (46)TiO,"8s2.9s1.3p4.1d1 X,3,2,0,38,1","8s2.11s1.3p4.1d1 C,3,2,0,37,3",0.5,1.0,1.0
TiO 1,4832.3185,-0.135,0.5517411348819126,43.0,3.1167534390736695,42.0,99.0,99.0,99.0,7.405,0.0,0.0,0.011000000000000001,_                             6 wl:PPN2012   6 gf:PPN2012   6 PPN2012   6 PPN2012   6 PPN2012   6 PPN2012   6 PPN2012   6 PPN2012   6 PPN2012    (48)TiO,"8s2.9s1.3p4.1d1 a,1,2,0,43,0","8s2.11s1.3p4.1d1 f,1,2,0,42,2",0.5,1.0,1.0
TiO 1,4832.3337,0.368,1.4478171590161806,67.0,4.0128214538287805,68.0,99.0,99.0,99.0,7.345,0.0,0.0,0.001,_                             6 wl:PPN2012   6 gf:PPN2012   6 PPN2012   6 PPN2012   6 PPN2012   6 PPN2012   6 PPN2012   6 PPN2012   6 PPN2012    (48)TiO,"8s2.9s1.3p4.1d1 a,1,2,0,67,6","8s2.11s1.3p4.1d1 f,1,2,0,68,9",0.5,1.0,1.0
TiO 1,4832.3596,-0.762,0.22607116147404316,39.0,2.791085387420861,38.0,99.0,99.0,99.0,7.32,0.0,0.0,0.009000000000000001,_          0.0447057          2 wl:PPN2012   2 gf:PPN2012   2 PPN2012   2 PPN2012   2 PPN2012   2 PPN2012   2 PPN2012   2 PPN2012   2 PPN2012    (47)TiO,"8s2.9s1.3p4.1d1 X,3,2,0,38,1","8s2.11s1.3p4.1d1 C,3,2,0,37,3",0.5,1.0,1.0
Fe 1,4832.3608,-2.174,5.105472364914257,1.0,7.670462153575754,2.0,1.5,1.34,1.26,7.75,-3.45,-7.06,0.063,_          Kurucz Fe I 2014   5 wl:K14   5 gf:K14   5 K14   5 K14   5 K14   5 K14   5 K14   5 K14   5 K14    Fe,3d8 3P,3d7.(4F).7p 3D*,0.5,1.0,1.0
TiO 1,4832.3625,-0.48700000000000004,0.49150635096653117,86.0,3.0564774056157895,87.0,99.0,99.0,99.0,7.282,0.0,0.0,0.006,_          -0.0336505         3 wl:PPN2012   3 gf:PPN2012   3 PPN2012   3 PPN2012   3 PPN2012   3 PPN2012   3 PPN2012   3 PPN2012   3 PPN2012    (46)TiO,"8s2.9s1.3p4.1d1 X,3,2,0,85,0","8s2.11s1.3p4.1d1 C,3,2,0,86,2",0.5,1.0,1.0
TiO 1,4832.3682,-0.742,0.3296288880204485,56.0,2.8946578184930862,57.0,99.0,99.0,99.0,7.308,0.0,0.0,0.006999999999999999,_          0.0809832          8 wl:PPN2012   8 gf:PPN2012   8 PPN2012   8 PPN2012   8 PPN2012   8 PPN2012   8 PPN2012   8 PPN2012   8 PPN2012    (49)TiO,"8s2.9s1.3p4.1d1 X,3,2,0,55,1","8s2.11s1.3p4.1d1 C,3,2,0,56,3",0.5,1.0,1.0
Dy 1,4832.374,0.5539999999999999,2.171521226590544,9.0,4.7365038241685875,8.0,1.32,1.31,1.33,0.0,0.0,0.0,0.004,_          La1 to Lu 2 Bell   1 wl:MC   1 gf:MC   1 MC   1 MC   1 MC   1 MC   1 MC   1 MC   1 MC    Dy,4f10.(5I<8>).5d.6s.(3D) 3[8],4f10.(5I).5d.6p? *,0.5,1.0,1.0
TiO 1,4832.3768,-0.337,0.7148460289845298,38.0,3.2798273743221786,37.0,99.0,99.0,99.0,7.303,0.0,0.0,0.004,_                             6 wl:PPN2012   6 gf:PPN2012   6 PPN2012   6 PPN2012   6 PPN2012   6 PPN2012   6 PPN2012   6 PPN2012   6 PPN2012    (48)TiO,"8s2.9s1.3p4.1d1 X,3,2,0,38,5","8s2.11s1.3p4.1d1 C,3,2,0,37,8",0.5,1.0,1.0
TiO 1,4832.3859,0.413,0.8894583551958802,87.0,3.454187219113801,86.0,99.0,99.0,99.0,7.273,0.0,0.0,0.011000000000000001,_          -0.466452          6 wl:PPN2012   6 gf:PPN2012   6 PPN2012   6 PPN2012   6 PPN2012   6 PPN2012   6 PPN2012   6 PPN2012   6 PPN2012    (48)TiO,"8s2.9s1.3p4.1d1 X,3,2,0,88,3","8s2.11s1.3p4.1d1 C,3,2,0,87,6",0.5,1.0,1.0
TiO 1,4832.3916,0.45399999999999996,0.49599718258309666,84.0,3.0610372964303463,85.0,99.0,99.0,99.0,7.284,0.0,0.0,0.054000000000000006,_          0.125570           6 wl:PPN2012   6 gf:PPN2012   6 PPN2012   6 PPN2012   6 PPN2012   6 PPN2012   6 PPN2012   6 PPN2012   6 PPN2012    (48)TiO,"8s2.9s1.3p4.1d1 X,3,2,0,85,0","8s2.11s1.3p4.1d1 C,3,2,0,86,2",0.5,1.0,1.0
V 1,4832.4025,-2.517,5.711951977448762e-07,1.5,2.5649682659966895,1.5,0.4,1.21,0.8,7.17,-5.98,-7.74,0.9840000000000001,"_          Wisconsin Sc-Mn_  24 wl:LWDFSC  24 gf:LWDFSC  24 LWDFSC  24 LWDFSC  19 K09  19 K09  19 K09  25 BPM  44 MFW   hfs:UBDE,PBAG V",- a4F,- z4D*,0.5,1.0,1.0
V 1,4832.4063,-2.403,0.0,1.5,2.5649656891091293,1.5,0.4,1.21,0.8,7.17,-5.98,-7.74,0.9840000000000001,"_          Wisconsin Sc-Mn_  24 wl:LWDFSC  24 gf:LWDFSC  24 LWDFSC  24 LWDFSC  19 K09  19 K09  19 K09  25 BPM  44 MFW   hfs:UBDE,PBAG V",- a4F,- z4D*,0.5,1.0,1.0
V 1,4832.4102,-2.528,0.0,1.5,2.5649636131177265,1.5,0.4,1.21,0.8,7.17,-5.98,-7.74,0.9840000000000001,"_          Wisconsin Sc-Mn_  24 wl:LWDFSC  24 gf:LWDFSC  24 LWDFSC  24 LWDFSC  19 K09  19 K09  19 K09  25 BPM  44 MFW   hfs:UBDE,PBAG V",- a4F,- z4D*,0.5,1.0,1.0
TiO 1,4832.4154,0.45899999999999996,0.4911169537975368,85.0,3.0560972700663465,86.0,99.0,99.0,99.0,7.2829999999999995,0.0,0.0,0.055999999999999994,_          0.0365811          6 wl:PPN2012   6 gf:PPN2012   6 PPN2012   6 PPN2012   6 PPN2012   6 PPN2012   6 PPN2012   6 PPN2012   6 PPN2012    (48)TiO,"8s2.9s1.3p4.1d1 X,3,2,0,85,0","8s2.11s1.3p4.1d1 C,3,2,0,86,2",0.5,1.0,1.0
TiO 1,4832.4196,0.392,1.3389069602744714,68.0,3.9038656289024027,67.0,99.0,99.0,99.0,7.352,0.0,0.0,0.002,_                             6 wl:PPN2012   6 gf:PPN2012   6 PPN2012   6 PPN2012   6 PPN2012   6 PPN2012   6 PPN2012   6 PPN2012   6 PPN2012    (48)TiO,"8s2.9s1.3p4.1d1 a,1,2,0,68,5","8s2.11s1.3p4.1d1 f,1,2,0,67,8",0.5,1.0,1.0
TiO 1,4832.4198,0.539,1.059765702102673,119.0,3.6244735630975415,118.0,99.0,99.0,99.0,7.236000000000001,0.0,0.0,0.008,_          -0.472261          6 wl:PPN2012   6 gf:PPN2012   6 PPN2012   6 PPN2012   6 PPN2012   6 PPN2012   6 PPN2012   6 PPN2012   6 PPN2012    (48)TiO,"8s2.9s1.3p4.1d1 X,3,2,0,119,1","8s2.11s1.3p4.1d1 C,3,2,0,118,4",0.5,1.0,1.0
V 1,4832.4229,-2.7039999999999997,0.0,1.5,2.564956853623265,1.5,0.4,1.21,0.8,7.17,-5.98,-7.74,0.9840000000000001,"_          Wisconsin Sc-Mn_  24 wl:LWDFSC  24 gf:LWDFSC  24 LWDFSC  24 LWDFSC  19 K09  19 K09  19 K09  25 BPM  44 MFW   hfs:UBDE,PBAG V",- a4F,- z4D*,0.5,1.0,1.0
V 1,4832.4232,-21.5,0.0,1.5,2.5649566764498464,1.5,0.4,1.21,0.8,7.17,-5.98,-7.74,0.9840000000000001,"_          Wisconsin Sc-Mn_  24 wl:LWDFSC  24 gf:LWDFSC  24 LWDFSC  24 LWDFSC  19 K09  19 K09  19 K09  25 BPM  44 MFW   hfs:UBDE,PBAG V",- a4F,- z4D*,0.5,1.0,1.0
V 1,4832.4237,-2.722,5.711951977448762e-07,1.5,2.564957000172586,1.5,0.4,1.21,0.8,7.17,-5.98,-7.74,0.9840000000000001,"_          Wisconsin Sc-Mn_  24 wl:LWDFSC  24 gf:LWDFSC  24 LWDFSC  24 LWDFSC  19 K09  19 K09  19 K09  25 BPM  44 MFW   hfs:UBDE,PBAG V",- a4F,- z4D*,0.5,1.0,1.0
V 1,4832.4243,-2.106,1.2164461566386595e-05,1.5,2.5649682659966895,1.5,0.4,1.21,0.8,7.17,-5.98,-7.74,0.9840000000000001,"_          Wisconsin Sc-Mn_  24 wl:LWDFSC  24 gf:LWDFSC  24 LWDFSC  24 LWDFSC  19 K09  19 K09  19 K09  25 BPM  44 MFW   hfs:UBDE,PBAG V",- a4F,- z4D*,0.5,1.0,1.0
V 1,4832.436,-2.528,0.0,1.5,2.5649499169553844,1.5,0.4,1.21,0.8,7.17,-5.98,-7.74,0.9840000000000001,"_          Wisconsin Sc-Mn_  24 wl:LWDFSC  24 gf:LWDFSC  24 LWDFSC  24 LWDFSC  19 K09  19 K09  19 K09  25 BPM  44 MFW   hfs:UBDE,PBAG V",- a4F,- z4D*,0.5,1.0,1.0
V 1,4832.4407,-2.403,5.711951977448762e-07,1.5,2.564947987637288,1.5,0.4,1.21,0.8,7.17,-5.98,-7.74,0.9840000000000001,"_          Wisconsin Sc-Mn_  24 wl:LWDFSC  24 gf:LWDFSC  24 LWDFSC  24 LWDFSC  19 K09  19 K09  19 K09  25 BPM  44 MFW   hfs:UBDE,PBAG V",- a4F,- z4D*,0.5,1.0,1.0
MgH 1,4832.443,-1.5919999999999999,0.1474147311080319,13.5,2.712360877332019,12.5,99.0,99.0,99.0,7.39,0.0,0.0,0.048,_                            18 wl:KMGH  18 gf:KMGH  18 KMGH  18 KMGH  18 KMGH  18 KMGH  18 KMGH  18 KMGH  18 KMGH    (24)MgH,"4s2.5s1 X,2,0,f,14,0","4s2.2p1 A,2,1,f,13,1",0.5,1.0,1.0
V 1,4832.4456,-2.517,1.2164461566386595e-05,1.5,2.564957000172586,1.5,0.4,1.21,0.8,7.17,-5.98,-7.74,0.9840000000000001,"_          Wisconsin Sc-Mn_  24 wl:LWDFSC  24 gf:LWDFSC  24 LWDFSC  24 LWDFSC  19 K09  19 K09  19 K09  25 BPM  44 MFW   hfs:UBDE,PBAG V",- a4F,- z4D*,0.5,1.0,1.0
CH 1,4832.454,-2.557,0.9104243929485724,11.5,3.4753644639468835,11.5,99.0,99.0,99.0,6.27,0.0,0.0,0.006999999999999999,_                            37 wl:JLIY  37 gf:JLIY  37 JLIY  37 JLIY  37 JLIY  37 JLIY  37 JLIY  37 JLIY  37 JLIY    (12)CH,"1s2.2s2.3s2.1p1 X,2,1,f,12,2","1s2.2s2.3s1.1p2 A,2,2,e,12,1",0.5,1.0,1.0
TiO 1,4832.4665,-0.21,0.8036611913591942,55.0,3.3685949763586933,56.0,99.0,99.0,99.0,7.292000000000001,0.0,0.0,0.004,_                             6 wl:PPN2012   6 gf:PPN2012   6 PPN2012   6 PPN2012   6 PPN2012   6 PPN2012   6 PPN2012   6 PPN2012   6 PPN2012    (48)TiO,"8s2.9s1.3p4.1d1 X,3,2,0,54,5","8s2.11s1.3p4.1d1 C,3,2,0,55,8",0.5,1.0,1.0
MgH 1,4832.4837,-2.908,0.2268918252755177,7.5,2.7918163982491446,6.5,99.0,99.0,99.0,7.39,0.0,0.0,0.002,_                            18 wl:KMGH  18 gf:KMGH  18 KMGH  18 KMGH  18 KMGH  18 KMGH  18 KMGH  18 KMGH  18 KMGH    (24)MgH,"4s2.5s1 X,2,0,f,8,1","4s2.2p1 A,2,1,f,6,2",0.5,1.0,1.0
TiO 1,4832.4952,-0.612,0.3523447519472958,55.0,2.9173123350390253,56.0,99.0,99.0,99.0,7.309,0.0,0.0,0.008,_          0.0925237          2 wl:PPN2012   2 gf:PPN2012   2 PPN2012   2 PPN2012   2 PPN2012   2 PPN2012   2 PPN2012   2 PPN2012   2 PPN2012    (47)TiO,"8s2.9s1.3p4.1d1 X,3,2,0,56,1","8s2.11s1.3p4.1d1 C,3,2,0,57,3",0.5,1.0,1.0
TiO 1,4832.5102,-1.12,0.558258252636152,44.0,3.1231687534033665,43.0,99.0,99.0,99.0,7.404,0.0,0.0,0.001,_                             2 wl:PPN2012   2 gf:PPN2012   2 PPN2012   2 PPN2012   2 PPN2012   2 PPN2012   2 PPN2012   2 PPN2012   2 PPN2012    (47)TiO,"8s2.9s1.3p4.1d1 a,1,2,0,44,0","8s2.11s1.3p4.1d1 f,1,2,0,43,2",0.5,1.0,1.0
TiO 1,4832.518,0.301,1.1503206727283366,132.0,3.7150797267983413,131.0,99.0,99.0,99.0,7.215,0.0,0.0,0.003,_          -0.277613          6 wl:PPN2012   6 gf:PPN2012   6 PPN2012   6 PPN2012   6 PPN2012   6 PPN2012   6 PPN2012   6 PPN2012   6 PPN2012    (48)TiO,"8s2.9s1.3p4.1d1 X,3,2,0,132,0","8s2.11s1.3p4.1d1 C,3,2,0,131,3",0.5,1.0,1.0
TiO 1,4832.5203,-0.804,0.2939292625519122,67.0,2.858831840728908,66.0,99.0,99.0,99.0,7.303,0.0,0.0,0.006999999999999999,_          -0.00476384        4 wl:PPN2012   4 gf:PPN2012   4 PPN2012   4 PPN2012   4 PPN2012   4 PPN2012   4 PPN2012   4 PPN2012   4 PPN2012    (50)TiO,"8s2.9s1.3p4.1d1 X,3,2,0,66,0","8s2.11s1.3p4.1d1 C,3,2,0,65,2",0.5,1.0,1.0
TiO 1,4832.5344,-0.912,0.2193570576268631,38.0,2.784277663106171,37.0,99.0,99.0,99.0,7.32,0.0,0.0,0.006999999999999999,_          0.0430451          8 wl:PPN2012   8 gf:PPN2012   8 PPN2012   8 PPN2012   8 PPN2012   8 PPN2012   8 PPN2012   8 PPN2012   8 PPN2012    (49)TiO,"8s2.9s1.3p4.1d1 X,3,2,0,37,1","8s2.11s1.3p4.1d1 C,3,2,0,36,3",0.5,1.0,1.0
TiO 1,4832.5394,-0.763,0.23853195767080312,39.0,2.803476120147631,38.0,99.0,99.0,99.0,7.32,0.0,0.0,0.009000000000000001,_          0.0925393          2 wl:PPN2012   2 gf:PPN2012   2 PPN2012   2 PPN2012   2 PPN2012   2 PPN2012   2 PPN2012   2 PPN2012   2 PPN2012    (47)TiO,"8s2.9s1.3p4.1d1 X,3,2,0,39,1","8s2.11s1.3p4.1d1 C,3,2,0,38,3",0.5,1.0,1.0
TiO 1,4832.5417,0.12,1.3263704221314767,96.0,3.8912642470241314,95.0,99.0,99.0,99.0,7.247000000000001,0.0,0.0,0.001,_                             6 wl:PPN2012   6 gf:PPN2012   6 PPN2012   6 PPN2012   6 PPN2012   6 PPN2012   6 PPN2012   6 PPN2012   6 PPN2012    (48)TiO,"8s2.9s1.3p4.1d1 X,3,2,0,96,6","8s2.11s1.3p4.1d1 C,3,2,0,95,10",0.5,1.0,1.0
CH 1,4832.554,-2.529,0.9104935761307608,12.5,3.475380953845147,12.5,99.0,99.0,99.0,6.27,0.0,0.0,0.006999999999999999,_                            37 wl:JLIY  37 gf:JLIY  37 JLIY  37 JLIY  37 JLIY  37 JLIY  37 JLIY  37 JLIY  37 JLIY    (12)CH,"1s2.2s2.3s2.1p1 X,2,1,e,12,2","1s2.2s2.3s1.1p2 A,2,2,f,12,1",0.5,1.0,1.0
TiO 1,4832.5644,0.19699999999999998,0.23538066372212463,36.0,2.800305720234122,35.0,99.0,99.0,99.0,7.321000000000001,0.0,0.0,0.081,_          0.0815641          6 wl:PPN2012   6 gf:PPN2012   6 PPN2012   6 PPN2012   6 PPN2012   6 PPN2012   6 PPN2012   6 PPN2012   6 PPN2012    (48)TiO,"8s2.9s1.3p4.1d1 X,3,2,0,37,1","8s2.11s1.3p4.1d1 C,3,2,0,36,3",0.5,1.0,1.0
TiO 1,4832.6069,-0.6940000000000001,0.47053063004801665,85.0,3.035372815522425,86.0,99.0,99.0,99.0,7.2829999999999995,0.0,0.0,0.004,_          -0.0321134         4 wl:PPN2012   4 gf:PPN2012   4 PPN2012   4 PPN2012   4 PPN2012   4 PPN2012   4 PPN2012   4 PPN2012   4 PPN2012    (50)TiO,"8s2.9s1.3p4.1d1 X,3,2,0,84,0","8s2.11s1.3p4.1d1 C,3,2,0,85,2",0.5,1.0,1.0
TiO 1,4832.6126,-0.597,0.35343049396296145,57.0,2.9183593815866606,58.0,99.0,99.0,99.0,7.308,0.0,0.0,0.008,_          0.136976           2 wl:PPN2012   2 gf:PPN2012   2 PPN2012   2 PPN2012   2 PPN2012   2 PPN2012   2 PPN2012   2 PPN2012   2 PPN2012    (47)TiO,"8s2.9s1.3p4.1d1 X,3,2,0,57,1","8s2.11s1.3p4.1d1 C,3,2,0,58,3",0.5,1.0,1.0
CH 1,4832.626,-2.637,1.1075376936757149,8.5,3.6723865123046875,8.5,99.0,99.0,99.0,6.27,0.0,0.0,0.003,_                            37 wl:JLIY  37 gf:JLIY  37 JLIY  37 JLIY  37 JLIY  37 JLIY  37 JLIY  37 JLIY  37 JLIY    (12)CH,"1s2.2s2.3s2.1p1 X,2,1,f,9,3","1s2.2s2.3s1.1p2 A,2,2,e,9,2",0.5,1.0,1.0
TiO 1,4832.6523,-0.348,0.7226629474713671,37.0,3.2874980286512603,36.0,99.0,99.0,99.0,7.303,0.0,0.0,0.004,_                             6 wl:PPN2012   6 gf:PPN2012   6 PPN2012   6 PPN2012   6 PPN2012   6 PPN2012   6 PPN2012   6 PPN2012   6 PPN2012    (48)TiO,"8s2.9s1.3p4.1d1 X,3,2,0,38,5","8s2.11s1.3p4.1d1 C,3,2,0,37,8",0.5,1.0,1.0
TiO 1,4832.6529,0.342,0.3169960761481185,66.0,2.8818709562553995,65.0,99.0,99.0,99.0,7.303,0.0,0.0,0.08199999999999999,_          0.0754960          6 wl:PPN2012   6 gf:PPN2012   6 PPN2012   6 PPN2012   6 PPN2012   6 PPN2012   6 PPN2012   6 PPN2012   6 PPN2012    (48)TiO,"8s2.9s1.3p4.1d1 X,3,2,0,67,0","8s2.11s1.3p4.1d1 C,3,2,0,66,2",0.5,1.0,1.0
TiO 1,4832.6578,0.214,0.9425718711595895,84.0,3.507404088304521,85.0,99.0,99.0,99.0,7.272,0.0,0.0,0.006,_                             6 wl:PPN2012   6 gf:PPN2012   6 PPN2012   6 PPN2012   6 PPN2012   6 PPN2012   6 PPN2012   6 PPN2012   6 PPN2012    (48)TiO,"8s2.9s1.3p4.1d1 X,3,2,0,83,4","8s2.11s1.3p4.1d1 C,3,2,0,84,7",0.5,1.0,1.0
TiO 1,4832.676,-0.9129999999999999,0.2317421242758083,38.0,2.796612230991487,37.0,99.0,99.0,99.0,7.32,0.0,0.0,0.006,_          0.0896130          8 wl:PPN2012   8 gf:PPN2012   8 PPN2012   8 PPN2012   8 PPN2012   8 PPN2012   8 PPN2012   8 PPN2012   8 PPN2012    (49)TiO,"8s2.9s1.3p4.1d1 X,3,2,0,38,1","8s2.11s1.3p4.1d1 C,3,2,0,37,3",0.5,1.0,1.0
Fe 1,4832.682,-3.056,4.30127812829488,1.0,6.8660974386848554,2.0,-0.02,0.68,1.02,8.27,-4.92,-7.41,0.10300000000000001,_          Kurucz Fe I 2014   5 wl:K14   5 gf:K14   5 K14   5 K14   5 K14   5 K14   5 K14   5 K14   5 K14    Fe,3d7.(4F).4p y5F*,3d7.(4F).4d f3F,0.5,1.0,1.0
Ni 1,4832.6881,-1.112,3.796320595362198,2.0,6.361136657366199,3.0,0.74,1.08,1.42,8.25,-5.41,-7.56,0.5760000000000001,_          Kurucz NiI 2008   33 iso:K08  33 gf:K08  33 K08  33 K08  33 K08  33 K08  33 K08  33 K08  33 K08    (58)Ni,3d9.(2D).4p z3F*,3d8.4s.(4F).5s f3F,0.5,1.0,1.0
TiO 1,4832.6959,-1.065,0.5650030673690454,45.0,3.12981505029295,44.0,99.0,99.0,99.0,7.404,0.0,0.0,0.001,_                             3 wl:PPN2012   3 gf:PPN2012   3 PPN2012   3 PPN2012   3 PPN2012   3 PPN2012   3 PPN2012   3 PPN2012   3 PPN2012    (46)TiO,"8s2.9s1.3p4.1d1 a,1,2,0,45,0","8s2.11s1.3p4.1d1 f,1,2,0,44,2",0.5,1.0,1.0
Ni 1,4832.6961,-1.526,3.7963283443745395,2.0,6.361140203314246,3.0,0.74,1.08,1.42,8.25,-5.41,-7.56,0.429,_          Kurucz NiI 2008   33 iso:K08  33 gf:K08  33 K08  33 K08  33 K08  33 K08  33 K08  33 K08  33 K08    (60)Ni,3d9.(2D).4p z3F*,3d8.4s.(4F).5s f3F,0.5,1.0,1.0
TiO 1,4832.698,-0.7859999999999999,0.3097255932147912,67.0,2.874570270771569,66.0,99.0,99.0,99.0,7.303,0.0,0.0,0.006,_          0.0635790          8 wl:PPN2012   8 gf:PPN2012   8 PPN2012   8 PPN2012   8 PPN2012   8 PPN2012   8 PPN2012   8 PPN2012   8 PPN2012    (49)TiO,"8s2.9s1.3p4.1d1 X,3,2,0,67,0","8s2.11s1.3p4.1d1 C,3,2,0,66,2",0.5,1.0,1.0
TiO 1,4832.6997,-0.757,0.3423663797507025,54.0,2.907225352685448,55.0,99.0,99.0,99.0,7.309,0.0,0.0,0.006,_          0.0924082          8 wl:PPN2012   8 gf:PPN2012   8 PPN2012   8 PPN2012   8 PPN2012   8 PPN2012   8 PPN2012   8 PPN2012   8 PPN2012    (49)TiO,"8s2.9s1.3p4.1d1 X,3,2,0,55,1","8s2.11s1.3p4.1d1 C,3,2,0,56,3",0.5,1.0,1.0
Ni 1,4832.7003,-2.888,3.7963325722356736,2.0,6.361142174662986,3.0,0.74,1.08,1.42,8.25,-5.41,-7.56,0.048,_          Kurucz NiI 2008   33 iso:K08  33 gf:K08  33 K08  33 K08  33 K08  33 K08  33 K08  33 K08  33 K08    (61)Ni,3d9.(2D).4p z3F*,3d8.4s.(4F).5s f3F,0.5,1.0,1.0
Ni 1,4832.7041,-2.384,3.796336366152116,2.0,6.36114394763701,3.0,0.74,1.08,1.42,8.25,-5.41,-7.56,0.132,_          Kurucz NiI 2008   33 iso:K08  33 gf:K08  33 K08  33 K08  33 K08  33 K08  33 K08  33 K08  33 K08    (62)Ni,3d9.(2D).4p z3F*,3d8.4s.(4F).5s f3F,0.5,1.0,1.0
Ni 1,4832.711,-2.978,3.7963439663834206,2.0,6.361147915131329,3.0,0.74,1.08,1.42,8.25,-5.41,-7.56,0.039,_          Kurucz NiI 2008   33 iso:K08  33 gf:K08  33 K08  33 K08  33 K08  33 K08  33 K08  33 K08  33 K08    (64)Ni,3d9.(2D).4p z3F*,3d8.4s.(4F).5s f3F,0.5,1.0,1.0
TiO 1,4832.7172,0.574,1.0845173369583005,114.0,3.6344930980476953,113.0,99.0,99.0,99.0,7.242000000000001,0.0,0.0,0.008,_          -28.0966           6 wl:PPN2012   6 gf:PPN2012   6 PPN2012   6 PPN2012   6 PPN2012   6 PPN2012   6 PPN2012   6 PPN2012   6 PPN2012    (48)TiO,"8s2.9s1.3p4.1d1 X,3,2,0,113,2","8s2.11s1.3p4.1d1 C,3,2,0,112,5",0.5,1.0,1.0
TiO 1,4832.7206,-0.742,0.3431422108663718,56.0,2.9080127763235812,57.0,99.0,99.0,99.0,7.308,0.0,0.0,0.006,_          0.134987           8 wl:PPN2012   8 gf:PPN2012   8 PPN2012   8 PPN2012   8 PPN2012   8 PPN2012   8 PPN2012   8 PPN2012   8 PPN2012    (49)TiO,"8s2.9s1.3p4.1d1 X,3,2,0,56,1","8s2.11s1.3p4.1d1 C,3,2,0,57,3",0.5,1.0,1.0
TiO 1,4832.7271,-0.544,0.3488989459359468,58.0,2.913739606404726,59.0,99.0,99.0,99.0,7.307,0.0,0.0,0.01,_          0.0852227          3 wl:PPN2012   3 gf:PPN2012   3 PPN2012   3 PPN2012   3 PPN2012   3 PPN2012   3 PPN2012   3 PPN2012   3 PPN2012    (46)TiO,"8s2.9s1.3p4.1d1 X,3,2,0,57,1","8s2.11s1.3p4.1d1 C,3,2,0,58,3",0.5,1.0,1.0