species,wlcent,gflog,excit,j_lo,e_upp,j_up,lande_lower,lande_upper,lande,gamrad,gamqst,gamvw,depth,reference,term_lower,term_upper,error,atom_number,ionization
Co 1,4807.3374,-5.218999999999999,4.148839846760491,2.5,6.727180847565894,2.5,1.19,0.99,1.09,8.07,-5.36,-7.55,0.006999999999999999,"_          Kurucz CoI 2008   12 wl:K08  12 gf:K08  12 K08  12 K08  12 K08  12 K08  12 K08  12 K08  12 K08   hfs:GUKL,P Co",3p6.3d7.(4F).4s.4p.(3P*) z2D*,3p6.3d7.4s.(3F).5s h4F,0.5,1.0,1.0
Co 1,4807.3382,-3.048,4.148853357566458,2.5,6.72719393335403,2.5,1.19,0.99,1.09,8.07,-5.36,-7.55,0.006999999999999999,"_          Kurucz CoI 2008   12 wl:K08  12 gf:K08  12 K08  12 K08  12 K08  12 K08  12 K08  12 K08  12 K08   hfs:GUKL,P Co",3p6.3d7.(4F).4s.4p.(3P*) z2D*,3p6.3d7.4s.(3F).5s h4F,0.5,1.0,1.0
Ce 2,4807.3392,-1.99,1.1404470671786056,3.5,3.718787102271093,2.5,0.91,0.84,1.0,0.0,0.0,0.0,0.02,C-0.024    Ce 2: DREAM data  15 wl:PQWB  15 gf:PQWB  15 PQWB  15 PQWB  15 PQWB  15 PQWB  15 PQWB  15 PQWB  15 PQWB    Ce+,4f.(2F*).5d2.(1G) 2G*,4f.5d.(3G*).6p 4f.5d.(3G*).6p,0.024,1.0,2.0
TiO 1,4807.3402,-0.9,0.43102873160198496,8.0,3.0093682459608426,7.0,99.0,99.0,99.0,7.415,0.0,0.0,0.003,_                             6 wl:PPN2012   6 gf:PPN2012   6 PPN2012   6 PPN2012   6 PPN2012   6 PPN2012   6 PPN2012   6 PPN2012   6 PPN2012    (48)TiO,"8s2.9s1.3p4.1d1 a,1,2,0,8,0","8s2.11s1.3p4.1d1 f,1,2,0,7,2",0.5,1.0,1.0
TiO 1,4807.3413,0.22,1.3895121023454835,119.0,3.9678511455643912,119.0,99.0,99.0,99.0,7.398,0.0,0.0,0.001,_                             6 wl:PPN2012   6 gf:PPN2012   6 PPN2012   6 PPN2012   6 PPN2012   6 PPN2012   6 PPN2012   6 PPN2012   6 PPN2012    (48)TiO,"8s2.9s1.3p4.1d1 X,3,2,-,118,4","8s2.3p4.4p1.1d1 B,3,1,+,118,7",0.5,1.0,1.0
TiO 1,4807.3463,-1.105,0.1677127544031748,17.0,2.74608867052241,18.0,99.0,99.0,99.0,7.327000000000001,0.0,0.0,0.005,_          0.0738132          2 wl:PPN2012   2 gf:PPN2012   2 PPN2012   2 PPN2012   2 PPN2012   2 PPN2012   2 PPN2012   2 PPN2012   2 PPN2012    (47)TiO,"8s2.9s1.3p4.1d1 X,3,2,0,18,1","8s2.11s1.3p4.1d1 C,3,2,0,19,3",0.5,1.0,1.0
Co 1,4807.3465,-3.5660000000000003,4.148836008953643,2.5,6.727172176855027,2.5,1.19,0.99,1.09,8.07,-5.36,-7.55,0.006999999999999999,"_          Kurucz CoI 2008   12 wl:K08  12 gf:K08  12 K08  12 K08  12 K08  12 K08  12 K08  12 K08  12 K08   hfs:GUKL,P Co",3p6.3d7.(4F).4s.4p.(3P*) z2D*,3p6.3d7.4s.(3F).5s h4F,0.5,1.0,1.0
Co 1,4807.3482,-3.112,4.148845622192378,2.5,6.727180847565894,2.5,1.19,0.99,1.09,8.07,-5.36,-7.55,0.006999999999999999,"_          Kurucz CoI 2008   12 wl:K08  12 gf:K08  12 K08  12 K08  12 K08  12 K08  12 K08  12 K08  12 K08   hfs:GUKL,P Co",3p6.3d7.(4F).4s.4p.(3P*) z2D*,3p6.3d7.4s.(3F).5s h4F,0.5,1.0,1.0
Co 1,4807.3536,-3.3110000000000004,4.148839846760491,2.5,6.727172176855027,2.5,1.19,0.99,1.09,8.07,-5.36,-7.55,0.006999999999999999,"_          Kurucz CoI 2008   12 wl:K08  12 gf:K08  12 K08  12 K08  12 K08  12 K08  12 K08  12 K08  12 K08   hfs:GUKL,P Co",3p6.3d7.(4F).4s.4p.(3P*) z2D*,3p6.3d7.4s.(3F).5s h4F,0.5,1.0,1.0
TiO 1,4807.3566,-0.48100000000000004,0.8646549569378085,96.0,3.442721656468553,95.0,99.0,99.0,99.0,7.266,0.0,0.0,0.001,_          -0.492451          2 wl:PPN2012   2 gf:PPN2012   2 PPN2012   2 PPN2012   2 PPN2012   2 PPN2012   2 PPN2012   2 PPN2012   2 PPN2012    (47)TiO,"8s2.9s1.3p4.1d1 X,3,2,0,96,2","8s2.11s1.3p4.1d1 C,3,2,0,95,5",0.5,1.0,1.0
TiO 1,4807.3589,-0.518,0.9221818267930844,92.0,3.5032890527904876,93.0,99.0,99.0,99.0,7.266,0.0,0.0,0.001,_          5.17355            3 wl:PPN2012   3 gf:PPN2012   3 PPN2012   3 PPN2012   3 PPN2012   3 PPN2012   3 PPN2012   3 PPN2012   3 PPN2012    (46)TiO,"8s2.9s1.3p4.1d1 X,3,2,0,91,3","8s2.11s1.3p4.1d1 C,3,2,0,92,6",0.5,1.0,1.0
W 1,4807.361,-1.78,1.5078908502637887,4.0,4.086219106857516,3.0,0.99,1.43,0.33,0.0,0.0,0.0,0.038,_          Hf 1 - U 2 Bell   36 wl:CB  36 gf:CB  36 CB  36 CB  36 CB  36 CB  36 CB  36 CB  36 CB    W,5d4.6s2 a3H,* *,0.5,1.0,1.0
TiO 1,4807.3707,0.447,0.9913346700482943,97.0,3.5648488186289726,98.0,99.0,99.0,99.0,7.2589999999999995,0.0,0.0,0.008,_          -8.98361           6 wl:PPN2012   6 gf:PPN2012   6 PPN2012   6 PPN2012   6 PPN2012   6 PPN2012   6 PPN2012   6 PPN2012   6 PPN2012    (48)TiO,"8s2.9s1.3p4.1d1 X,3,2,0,97,3","8s2.11s1.3p4.1d1 C,3,2,0,98,6",0.5,1.0,1.0
TiO 1,4807.3724,-0.5770000000000001,0.356771347351152,70.0,2.935142378493007,71.0,99.0,99.0,99.0,7.297999999999999,0.0,0.0,0.009000000000000001,_          0.0908004          3 wl:PPN2012   3 gf:PPN2012   3 PPN2012   3 PPN2012   3 PPN2012   3 PPN2012   3 PPN2012   3 PPN2012   3 PPN2012    (46)TiO,"8s2.9s1.3p4.1d1 X,3,2,0,71,0","8s2.11s1.3p4.1d1 C,3,2,0,72,2",0.5,1.0,1.0
TiO 1,4807.3764,-0.5770000000000001,0.7891853543914708,77.0,3.3674394436382715,76.0,99.0,99.0,99.0,7.2829999999999995,0.0,0.0,0.002,_          -0.123083          3 wl:PPN2012   3 gf:PPN2012   3 PPN2012   3 PPN2012   3 PPN2012   3 PPN2012   3 PPN2012   3 PPN2012   3 PPN2012    (46)TiO,"8s2.9s1.3p4.1d1 X,3,2,0,78,3","8s2.11s1.3p4.1d1 C,3,2,0,77,6",0.5,1.0,1.0
TiO 1,4807.3899,0.345,1.3126140034695737,104.0,3.890926886022815,103.0,99.0,99.0,99.0,7.242999999999999,0.0,0.0,0.002,_                             6 wl:PPN2012   6 gf:PPN2012   6 PPN2012   6 PPN2012   6 PPN2012   6 PPN2012   6 PPN2012   6 PPN2012   6 PPN2012    (48)TiO,"8s2.9s1.3p4.1d1 X,3,2,0,104,5","8s2.11s1.3p4.1d1 C,3,2,0,103,9",0.5,1.0,1.0
TiO 1,4807.397,0.23,1.3071562190969388,93.0,3.8854652581400586,93.0,99.0,99.0,99.0,7.522,0.0,0.0,0.001,_                             6 wl:PPN2012   6 gf:PPN2012   6 PPN2012   6 PPN2012   6 PPN2012   6 PPN2012   6 PPN2012   6 PPN2012   6 PPN2012    (48)TiO,"8s2.9s1.3p4.1d1 X,3,2,+,94,6","8s2.3p4.4p1.1d1 B,3,1,-,94,9",0.5,1.0,1.0
CH 1,4807.404,-2.532,1.0188260085122591,20.5,3.5971314520136524,20.5,99.0,99.0,99.0,6.27,0.0,0.0,0.005,_                            37 wl:JLIY  37 gf:JLIY  37 JLIY  37 JLIY  37 JLIY  37 JLIY  37 JLIY  37 JLIY  37 JLIY    (12)CH,"1s2.2s2.3s2.1p1 X,2,1,e,20,1","1s2.2s2.3s1.1p2 A,2,2,f,20,0",0.5,1.0,1.0
TiO 1,4807.4168,-0.7559999999999999,0.7748429120218053,78.0,3.3520792893820928,77.0,99.0,99.0,99.0,7.2829999999999995,0.0,0.0,0.001,_          -1.98122           8 wl:PPN2012   8 gf:PPN2012   8 PPN2012   8 PPN2012   8 PPN2012   8 PPN2012   8 PPN2012   8 PPN2012   8 PPN2012    (49)TiO,"8s2.9s1.3p4.1d1 X,3,2,0,78,3","8s2.11s1.3p4.1d1 C,3,2,0,77,6",0.5,1.0,1.0
TiO 1,4807.4222,-0.76,0.3367010086362433,70.0,2.915026810342861,71.0,99.0,99.0,99.0,7.297999999999999,0.0,0.0,0.006,_          0.0563089          8 wl:PPN2012   8 gf:PPN2012   8 PPN2012   8 PPN2012   8 PPN2012   8 PPN2012   8 PPN2012   8 PPN2012   8 PPN2012    (49)TiO,"8s2.9s1.3p4.1d1 X,3,2,0,70,0","8s2.11s1.3p4.1d1 C,3,2,0,71,2",0.5,1.0,1.0
TiO 1,4807.4284,-0.919,0.17006128786849342,26.0,2.7483686159296883,27.0,99.0,99.0,99.0,7.324,0.0,0.0,0.008,_          0.0281164          2 wl:PPN2012   2 gf:PPN2012   2 PPN2012   2 PPN2012   2 PPN2012   2 PPN2012   2 PPN2012   2 PPN2012   2 PPN2012    (47)TiO,"8s2.9s1.3p4.1d1 X,3,2,0,25,1","8s2.11s1.3p4.1d1 C,3,2,0,26,3",0.5,1.0,1.0
TiO 1,4807.4345,-0.392,0.15291873678948378,9.0,2.7312468941958534,10.0,99.0,99.0,99.0,7.329,0.0,0.0,0.028999999999999998,_          0.0730174          6 wl:PPN2012   6 gf:PPN2012   6 PPN2012   6 PPN2012   6 PPN2012   6 PPN2012   6 PPN2012   6 PPN2012   6 PPN2012    (48)TiO,"8s2.9s1.3p4.1d1 X,3,2,0,10,1","8s2.11s1.3p4.1d1 C,3,2,0,11,3",0.5,1.0,1.0
TiO 1,4807.4404,-0.344,0.15424906243149872,10.0,2.732574021045574,11.0,99.0,99.0,99.0,7.327999999999999,0.0,0.0,0.032,_          0.0729260          6 wl:PPN2012   6 gf:PPN2012   6 PPN2012   6 PPN2012   6 PPN2012   6 PPN2012   6 PPN2012   6 PPN2012   6 PPN2012    (48)TiO,"8s2.9s1.3p4.1d1 X,3,2,0,11,1","8s2.11s1.3p4.1d1 C,3,2,0,12,3",0.5,1.0,1.0
TiO 1,4807.4457,0.395,1.2566205081765098,72.0,3.8349033865539632,71.0,99.0,99.0,99.0,7.356,0.0,0.0,0.003,_                             6 wl:PPN2012   6 gf:PPN2012   6 PPN2012   6 PPN2012   6 PPN2012   6 PPN2012   6 PPN2012   6 PPN2012   6 PPN2012    (48)TiO,"8s2.9s1.3p4.1d1 a,1,2,0,72,4","8s2.11s1.3p4.1d1 f,1,2,0,71,7",0.5,1.0,1.0
TiO 1,4807.4482,-1.187,0.16189648212197466,20.0,2.7402116955781284,21.0,99.0,99.0,99.0,7.3260000000000005,0.0,0.0,0.004,_          0.0626154          4 wl:PPN2012   4 gf:PPN2012   4 PPN2012   4 PPN2012   4 PPN2012   4 PPN2012   4 PPN2012   4 PPN2012   4 PPN2012    (50)TiO,"8s2.9s1.3p4.1d1 X,3,2,0,20,1","8s2.11s1.3p4.1d1 C,3,2,0,21,3",0.5,1.0,1.0
TiO 1,4807.4494,0.044000000000000004,0.1628692621353253,24.0,2.741167241788031,25.0,99.0,99.0,99.0,7.325,0.0,0.0,0.075,_          0.0316111          6 wl:PPN2012   6 gf:PPN2012   6 PPN2012   6 PPN2012   6 PPN2012   6 PPN2012   6 PPN2012   6 PPN2012   6 PPN2012    (48)TiO,"8s2.9s1.3p4.1d1 X,3,2,0,23,1","8s2.11s1.3p4.1d1 C,3,2,0,24,3",0.5,1.0,1.0
TiO 1,4807.452,-0.24100000000000002,0.5007296470021118,33.0,3.079009301790431,34.0,99.0,99.0,99.0,7.407,0.0,0.0,0.011000000000000001,_                             6 wl:PPN2012   6 gf:PPN2012   6 PPN2012   6 PPN2012   6 PPN2012   6 PPN2012   6 PPN2012   6 PPN2012   6 PPN2012    (48)TiO,"8s2.9s1.3p4.1d1 a,1,2,0,33,0","8s2.11s1.3p4.1d1 f,1,2,0,34,2",0.5,1.0,1.0
TiO 1,4807.4529,-0.44799999999999995,0.15172135940241602,8.0,2.7300397840492843,9.0,99.0,99.0,99.0,7.329,0.0,0.0,0.025,_          0.0731709          6 wl:PPN2012   6 gf:PPN2012   6 PPN2012   6 PPN2012   6 PPN2012   6 PPN2012   6 PPN2012   6 PPN2012   6 PPN2012    (48)TiO,"8s2.9s1.3p4.1d1 X,3,2,0,9,1","8s2.11s1.3p4.1d1 C,3,2,0,10,3",0.5,1.0,1.0
TiO 1,4807.455,-0.9690000000000001,0.17864339962685716,21.0,2.7569618366721453,22.0,99.0,99.0,99.0,7.325,0.0,0.0,0.006999999999999999,_          0.0753003          3 wl:PPN2012   3 gf:PPN2012   3 PPN2012   3 PPN2012   3 PPN2012   3 PPN2012   3 PPN2012   3 PPN2012   3 PPN2012    (46)TiO,"8s2.9s1.3p4.1d1 X,3,2,0,22,1","8s2.11s1.3p4.1d1 C,3,2,0,23,3",0.5,1.0,1.0
TiO 1,4807.4618,-1.205,0.14771076817633133,19.0,2.7260107935682947,20.0,99.0,99.0,99.0,7.327000000000001,0.0,0.0,0.004,_          0.0479386          4 wl:PPN2012   4 gf:PPN2012   4 PPN2012   4 PPN2012   4 PPN2012   4 PPN2012   4 PPN2012   4 PPN2012   4 PPN2012    (50)TiO,"8s2.9s1.3p4.1d1 X,3,2,0,18,1","8s2.11s1.3p4.1d1 C,3,2,0,19,3",0.5,1.0,1.0
Gd 1,4807.462,0.04,1.0536715192428434,8.0,3.631945718726474,7.0,1.62,1.63,1.59,0.0,0.0,0.0,0.085,_          La1 to Lu 2 Bell   1 wl:MC   1 gf:MC   1 MC   1 MC   1 MC   1 MC   1 MC   1 MC   1 MC    Gd,4f7.(8S*).5d2.(3F)\ (10F*).6s,4f7.(8S*).5d2.(3F)\ (10F*).6p       11F,0.5,1.0,1.0
TiO 1,4807.468,-0.498,0.6582726843967376,24.0,3.236543747080172,25.0,99.0,99.0,99.0,7.307,0.0,0.0,0.003,_                             6 wl:PPN2012   6 gf:PPN2012   6 PPN2012   6 PPN2012   6 PPN2012   6 PPN2012   6 PPN2012   6 PPN2012   6 PPN2012    (48)TiO,"8s2.9s1.3p4.1d1 X,3,2,0,24,5","8s2.11s1.3p4.1d1 C,3,2,0,25,8",0.5,1.0,1.0
TiO 1,4807.4706,-0.3,0.15571233632846093,11.0,2.7340210406142473,12.0,99.0,99.0,99.0,7.327999999999999,0.0,0.0,0.035,_          0.0728941          6 wl:PPN2012   6 gf:PPN2012   6 PPN2012   6 PPN2012   6 PPN2012   6 PPN2012   6 PPN2012   6 PPN2012   6 PPN2012    (48)TiO,"8s2.9s1.3p4.1d1 X,3,2,0,12,1","8s2.11s1.3p4.1d1 C,3,2,0,13,3",0.5,1.0,1.0
TiO 1,4807.4794,-0.496,0.6465381752303379,24.0,3.2248030635007385,25.0,99.0,99.0,99.0,7.307,0.0,0.0,0.003,_                             6 wl:PPN2012   6 gf:PPN2012   6 PPN2012   6 PPN2012   6 PPN2012   6 PPN2012   6 PPN2012   6 PPN2012   6 PPN2012    (48)TiO,"8s2.9s1.3p4.1d1 X,3,2,0,23,5","8s2.11s1.3p4.1d1 C,3,2,0,24,8",0.5,1.0,1.0
TiO 1,4807.4795,-0.843,0.1778736561352836,28.0,2.7561525918152574,29.0,99.0,99.0,99.0,7.324,0.0,0.0,0.009000000000000001,_          0.0261479          3 wl:PPN2012   3 gf:PPN2012   3 PPN2012   3 PPN2012   3 PPN2012   3 PPN2012   3 PPN2012   3 PPN2012   3 PPN2012    (46)TiO,"8s2.9s1.3p4.1d1 X,3,2,0,27,1","8s2.11s1.3p4.1d1 C,3,2,0,28,3",0.5,1.0,1.0
TiO 1,4807.4954,-0.514,0.15065697986397444,7.0,2.7289526906058663,8.0,99.0,99.0,99.0,7.33,0.0,0.0,0.022000000000000002,_          0.0733888          6 wl:PPN2012   6 gf:PPN2012   6 PPN2012   6 PPN2012   6 PPN2012   6 PPN2012   6 PPN2012   6 PPN2012   6 PPN2012    (48)TiO,"8s2.9s1.3p4.1d1 X,3,2,0,8,1","8s2.11s1.3p4.1d1 C,3,2,0,9,3",0.5,1.0,1.0
TiO 1,4807.4961,0.57,1.078104316336257,111.0,3.6558936384204217,112.0,99.0,99.0,99.0,7.242000000000001,0.0,0.0,0.008,_          -0.870209          6 wl:PPN2012   6 gf:PPN2012   6 PPN2012   6 PPN2012   6 PPN2012   6 PPN2012   6 PPN2012   6 PPN2012   6 PPN2012    (48)TiO,"8s2.9s1.3p4.1d1 X,3,2,0,112,2","8s2.11s1.3p4.1d1 C,3,2,0,113,5",0.5,1.0,1.0
TiO 1,4807.4966,-0.897,0.1921424270948122,52.0,2.7704404067475177,51.0,99.0,99.0,99.0,7.314,0.0,0.0,0.008,_          0.0787850          8 wl:PPN2012   8 gf:PPN2012   8 PPN2012   8 PPN2012   8 PPN2012   8 PPN2012   8 PPN2012   8 PPN2012   8 PPN2012    (49)TiO,"8s2.9s1.3p4.1d1 X,3,2,0,52,0","8s2.11s1.3p4.1d1 C,3,2,0,51,2",0.5,1.0,1.0
TiO 1,4807.5013,0.511,0.8653612205202774,95.0,3.4434689092267057,94.0,99.0,99.0,99.0,7.267,0.0,0.0,0.015,_          -0.271265          6 wl:PPN2012   6 gf:PPN2012   6 PPN2012   6 PPN2012   6 PPN2012   6 PPN2012   6 PPN2012   6 PPN2012   6 PPN2012    (48)TiO,"8s2.9s1.3p4.1d1 X,3,2,0,96,2","8s2.11s1.3p4.1d1 C,3,2,0,95,5",0.5,1.0,1.0
V 1,4807.5226,0.31,2.1246599113463396,6.5,4.702901626970233,5.5,1.43,1.52,1.18,8.08,-5.33,-7.23,0.865,_          Wisconsin Sc-Mn_  24 wl:LWDFSC  24 gf:LWDFSC  24 LWDFSC  24 LWDFSC  19 K09  19 K09  19 K09  25 BPM  19 K09    V,3d3.(4F).4s.4p.(3P*) z6G*,3d3.4s.(5F).5s e6F,0.5,1.0,1.0
TiO 1,4807.525,-0.261,0.15730852128511108,12.0,2.7355880768860725,13.0,99.0,99.0,99.0,7.327999999999999,0.0,0.0,0.038,_          0.0729193          6 wl:PPN2012   6 gf:PPN2012   6 PPN2012   6 PPN2012   6 PPN2012   6 PPN2012   6 PPN2012   6 PPN2012   6 PPN2012    (48)TiO,"8s2.9s1.3p4.1d1 X,3,2,0,13,1","8s2.11s1.3p4.1d1 C,3,2,0,14,3",0.5,1.0,1.0
TiO 1,4807.545,-0.778,0.32053582498589056,70.0,2.898756116140461,71.0,99.0,99.0,99.0,7.297999999999999,0.0,0.0,0.006,_          -0.0174569         4 wl:PPN2012   4 gf:PPN2012   4 PPN2012   4 PPN2012   4 PPN2012   4 PPN2012   4 PPN2012   4 PPN2012   4 PPN2012    (50)TiO,"8s2.9s1.3p4.1d1 X,3,2,0,69,0","8s2.11s1.3p4.1d1 C,3,2,0,70,2",0.5,1.0,1.0
TiO 1,4807.5473,-1.127,0.15628045671810856,22.0,2.7345287559028875,23.0,99.0,99.0,99.0,7.3260000000000005,0.0,0.0,0.005,_          0.0367714          8 wl:PPN2012   8 gf:PPN2012   8 PPN2012   8 PPN2012   8 PPN2012   8 PPN2012   8 PPN2012   8 PPN2012   8 PPN2012    (49)TiO,"8s2.9s1.3p4.1d1 X,3,2,0,21,1","8s2.11s1.3p4.1d1 C,3,2,0,22,3",0.5,1.0,1.0
TiO 1,4807.5477,-1.081,0.17011848177878638,18.0,2.7483864696541236,19.0,99.0,99.0,99.0,7.3260000000000005,0.0,0.0,0.006,_          0.0741282          2 wl:PPN2012   2 gf:PPN2012   2 PPN2012   2 PPN2012   2 PPN2012   2 PPN2012   2 PPN2012   2 PPN2012   2 PPN2012    (47)TiO,"8s2.9s1.3p4.1d1 X,3,2,0,19,1","8s2.11s1.3p4.1d1 C,3,2,0,20,3",0.5,1.0,1.0
Cr 1,4807.5554,-3.623,3.5561401685986715,2.0,6.134364278466524,1.0,1.19,1.96,0.8,7.99,-5.65,-7.72,0.005,_          Kurucz Cr I 2016  10 wl:K16  10 gf:K16  10 K16  10 K16  10 K16  10 K16  10 K16  10 K16  10 K16    Cr,3d5.(4D).4s a3D,3d5.(4P).4p y3S*,0.5,1.0,1.0
CH 1,4807.559,-2.546,1.0188395227897835,19.5,3.5970617728946737,19.5,99.0,99.0,99.0,6.27,0.0,0.0,0.005,_                            37 wl:JLIY  37 gf:JLIY  37 JLIY  37 JLIY  37 JLIY  37 JLIY  37 JLIY  37 JLIY  37 JLIY    (12)CH,"1s2.2s2.3s2.1p1 X,2,1,f,20,1","1s2.2s2.3s1.1p2 A,2,2,e,20,0",0.5,1.0,1.0
TiO 1,4807.5599,-0.555,0.6615065890161903,21.0,3.239728281192192,22.0,99.0,99.0,99.0,7.308,0.0,0.0,0.003,_                             6 wl:PPN2012   6 gf:PPN2012   6 PPN2012   6 PPN2012   6 PPN2012   6 PPN2012   6 PPN2012   6 PPN2012   6 PPN2012    (48)TiO,"8s2.9s1.3p4.1d1 X,3,2,0,22,5","8s2.11s1.3p4.1d1 C,3,2,0,23,8",0.5,1.0,1.0
TiO 1,4807.5622,-0.594,0.14972559817415912,6.0,2.727985613865599,7.0,99.0,99.0,99.0,7.33,0.0,0.0,0.019,_          0.0736738          6 wl:PPN2012   6 gf:PPN2012   6 PPN2012   6 PPN2012   6 PPN2012   6 PPN2012   6 PPN2012   6 PPN2012   6 PPN2012    (48)TiO,"8s2.9s1.3p4.1d1 X,3,2,0,7,1","8s2.11s1.3p4.1d1 C,3,2,0,8,3",0.5,1.0,1.0
TiO 1,4807.588,-1.452,0.12888948346199586,8.0,2.70716941101555,7.0,99.0,99.0,99.0,7.332000000000001,0.0,0.0,0.003,_          0.136472           2 wl:PPN2012   2 gf:PPN2012   2 PPN2012   2 PPN2012   2 PPN2012   2 PPN2012   2 PPN2012   2 PPN2012   2 PPN2012    (47)TiO,"8s2.9s1.3p4.1d1 X,3,2,0,7,1","8s2.11s1.3p4.1d1 C,3,2,0,6,3",0.5,1.0,1.0
TiO 1,4807.5904,-1.581,0.14712600910738322,13.0,2.7253313601661584,13.0,99.0,99.0,99.0,7.329,0.0,0.0,0.002,_                             6 wl:PPN2012   6 gf:PPN2012   6 PPN2012   6 PPN2012   6 PPN2012   6 PPN2012   6 PPN2012   6 PPN2012   6 PPN2012    (48)TiO,"8s2.9s1.3p4.1d1 X,3,2,0,13,1","8s2.11s1.3p4.1d1 C,3,2,0,13,3",0.5,1.0,1.0
TiO 1,4807.5995,-0.586,0.1265888574905797,6.0,2.7048735956309953,5.0,99.0,99.0,99.0,7.335,0.0,0.0,0.021,_          0.157236           6 wl:PPN2012   6 gf:PPN2012   6 PPN2012   6 PPN2012   6 PPN2012   6 PPN2012   6 PPN2012   6 PPN2012   6 PPN2012    (48)TiO,"8s2.9s1.3p4.1d1 X,3,2,0,5,1","8s2.11s1.3p4.1d1 C,3,2,0,4,3",0.5,1.0,1.0
TiO 1,4807.6024,0.609,1.2821787346271993,127.0,3.8361516594540928,128.0,99.0,99.0,99.0,7.2170000000000005,0.0,0.0,0.004,_          -45.6036           6 wl:PPN2012   6 gf:PPN2012   6 PPN2012   6 PPN2012   6 PPN2012   6 PPN2012   6 PPN2012   6 PPN2012   6 PPN2012    (48)TiO,"8s2.9s1.3p4.1d1 X,3,2,0,126,2","8s2.11s1.3p4.1d1 C,3,2,0,127,5",0.5,1.0,1.0
TiO 1,4807.6036,-0.226,0.15903759250460972,13.0,2.737275005876851,14.0,99.0,99.0,99.0,7.327999999999999,0.0,0.0,0.040999999999999995,_          0.0729990          6 wl:PPN2012   6 gf:PPN2012   6 PPN2012   6 PPN2012   6 PPN2012   6 PPN2012   6 PPN2012   6 PPN2012   6 PPN2012    (48)TiO,"8s2.9s1.3p4.1d1 X,3,2,0,14,1","8s2.11s1.3p4.1d1 C,3,2,0,15,3",0.5,1.0,1.0
TiO 1,4807.605,0.275,1.0316074526405163,126.0,3.6095064387473434,125.0,99.0,99.0,99.0,7.226,0.0,0.0,0.005,_          -0.556741          6 wl:PPN2012   6 gf:PPN2012   6 PPN2012   6 PPN2012   6 PPN2012   6 PPN2012   6 PPN2012   6 PPN2012   6 PPN2012    (48)TiO,"8s2.9s1.3p4.1d1 X,3,2,0,125,0","8s2.11s1.3p4.1d1 C,3,2,0,124,3",0.5,1.0,1.0
TiO 1,4807.6079,0.142,1.2907445548620156,93.0,3.8689405203170426,93.0,99.0,99.0,99.0,7.521,0.0,0.0,0.001,_                             6 wl:PPN2012   6 gf:PPN2012   6 PPN2012   6 PPN2012   6 PPN2012   6 PPN2012   6 PPN2012   6 PPN2012   6 PPN2012    (48)TiO,"8s2.9s1.3p4.1d1 X,3,2,+,93,6","8s2.3p4.4p1.1d1 B,3,1,-,93,9",0.5,1.0,1.0
TiO 1,4807.619,0.5720000000000001,1.0741428228523706,112.0,3.6516078766664717,113.0,99.0,99.0,99.0,7.2410000000000005,0.0,0.0,0.008,_          -1.35234           6 wl:PPN2012   6 gf:PPN2012   6 PPN2012   6 PPN2012   6 PPN2012   6 PPN2012   6 PPN2012   6 PPN2012   6 PPN2012    (48)TiO,"8s2.9s1.3p4.1d1 X,3,2,0,112,2","8s2.11s1.3p4.1d1 C,3,2,0,113,5",0.5,1.0,1.0
TiO 1,4807.6218,-0.616,0.34942453974586213,71.0,2.9276424504038414,72.0,99.0,99.0,99.0,7.297000000000001,0.0,0.0,0.008,_          0.0549214          2 wl:PPN2012   2 gf:PPN2012   2 PPN2012   2 PPN2012   2 PPN2012   2 PPN2012   2 PPN2012   2 PPN2012   2 PPN2012    (47)TiO,"8s2.9s1.3p4.1d1 X,3,2,0,71,0","8s2.11s1.3p4.1d1 C,3,2,0,72,2",0.5,1.0,1.0
TiO 1,4807.6224,0.059000000000000004,0.17790902882682186,25.0,2.756133250280452,26.0,99.0,99.0,99.0,7.325,0.0,0.0,0.073,_          0.0670443          6 wl:PPN2012   6 gf:PPN2012   6 PPN2012   6 PPN2012   6 PPN2012   6 PPN2012   6 PPN2012   6 PPN2012   6 PPN2012    (48)TiO,"8s2.9s1.3p4.1d1 X,3,2,0,25,1","8s2.11s1.3p4.1d1 C,3,2,0,26,3",0.5,1.0,1.0
TiO 1,4807.6323,-0.5429999999999999,0.13883237138127322,7.0,2.717031486034916,6.0,99.0,99.0,99.0,7.332000000000001,0.0,0.0,0.022000000000000002,_          0.0301108          6 wl:PPN2012   6 gf:PPN2012   6 PPN2012   6 PPN2012   6 PPN2012   6 PPN2012   6 PPN2012   6 PPN2012   6 PPN2012    (48)TiO,"8s2.9s1.3p4.1d1 X,3,2,0,7,1","8s2.11s1.3p4.1d1 C,3,2,0,6,3",0.5,1.0,1.0