species,wlcent,gflog,excit,j_lo,e_upp,j_up,lande_lower,lande_upper,lande,gamrad,gamqst,gamvw,depth,reference,term_lower,term_upper,error,atom_number,ionization
TiO 1,4788.402,-0.865,0.11785622891648723,37.0,2.7064467071284963,36.0,99.0,99.0,99.0,7.322,0.0,0.0,0.011000000000000001,_          0.0994437          3 wl:PPN2012   3 gf:PPN2012   3 PPN2012   3 PPN2012   3 PPN2012   3 PPN2012   3 PPN2012   3 PPN2012   3 PPN2012    (46)TiO,"8s2.9s1.3p4.1d1 X,3,2,0,38,0","8s2.11s1.3p4.1d1 C,3,2,0,37,2",0.5,1.0,1.0
TiO 1,4788.4046,-0.038,0.6138075249481002,39.0,3.2023429541764323,38.0,99.0,99.0,99.0,7.306,0.0,0.0,0.011000000000000001,_                             6 wl:PPN2012   6 gf:PPN2012   6 PPN2012   6 PPN2012   6 PPN2012   6 PPN2012   6 PPN2012   6 PPN2012   6 PPN2012    (48)TiO,"8s2.9s1.3p4.1d1 X,3,2,0,40,4","8s2.11s1.3p4.1d1 C,3,2,0,39,7",0.5,1.0,1.0
Ce 1,4788.425,-0.247,0.4929740634977628,6.0,3.081498532523039,5.0,1.16,1.12,1.25,0.0,0.0,0.0,0.065,_          La1 to Lu 2 Bell   1 wl:CB   1 gf:CB   1 CB   1 CB   1 CB   1 CB   1 CB   1 CB   1 CB    Ce,4f.5d.6s2 3H*, ,0.5,1.0,1.0
W 1,4788.427,-1.65,2.0372227837328767,4.0,4.625746260884573,5.0,1.02,1.25,1.71,0.0,0.0,0.0,0.008,_          Hf 1 - U 2 Bell   36 wl:CB  36 gf:CB  36 CB  36 CB  36 CB  36 CB  36 CB  36 CB  36 CB    W,5d4.6s2 a3G,* *,0.5,1.0,1.0
TiO 1,4788.4282,-0.835,0.7120383572391398,58.0,3.300561003696713,59.0,99.0,99.0,99.0,7.294,0.0,0.0,0.001,_                             3 wl:PPN2012   3 gf:PPN2012   3 PPN2012   3 PPN2012   3 PPN2012   3 PPN2012   3 PPN2012   3 PPN2012   3 PPN2012    (46)TiO,"8s2.9s1.3p4.1d1 X,3,2,0,57,4","8s2.11s1.3p4.1d1 C,3,2,0,58,7",0.5,1.0,1.0
MgH 1,4788.43,-1.375,0.36052360510338793,3.5,2.949045222492122,3.5,99.0,99.0,99.0,7.39,0.0,0.0,0.038,_                            18 wl:KMGH  18 gf:KMGH  18 KMGH  18 KMGH  18 KMGH  18 KMGH  18 KMGH  18 KMGH  18 KMGH    (24)MgH,"4s2.5s1 X,2,0,f,4,2","4s2.2p1 A,2,1,e,4,3",0.5,1.0,1.0
TiO 1,4788.4412,-0.727,0.22922745198587968,55.0,2.817788855903582,56.0,99.0,99.0,99.0,7.31,0.0,0.0,0.01,_          0.0846738          2 wl:PPN2012   2 gf:PPN2012   2 PPN2012   2 PPN2012   2 PPN2012   2 PPN2012   2 PPN2012   2 PPN2012   2 PPN2012    (47)TiO,"8s2.9s1.3p4.1d1 X,3,2,0,56,0","8s2.11s1.3p4.1d1 C,3,2,0,57,2",0.5,1.0,1.0
MgH 1,4788.4587,-0.924,0.3202721353947111,14.5,2.9087782547587615,14.5,99.0,99.0,99.0,7.39,0.0,0.0,0.113,_                            18 wl:KMGH  18 gf:KMGH  18 KMGH  18 KMGH  18 KMGH  18 KMGH  18 KMGH  18 KMGH  18 KMGH    (24)MgH,"4s2.5s1 X,2,0,e,14,1","4s2.2p1 A,2,1,f,14,2",0.5,1.0,1.0
TiO 1,4788.5017,-0.883,0.21235552121468806,55.0,2.8008797670684085,56.0,99.0,99.0,99.0,7.31,0.0,0.0,0.006999999999999999,_          0.0765480          4 wl:PPN2012   4 gf:PPN2012   4 PPN2012   4 PPN2012   4 PPN2012   4 PPN2012   4 PPN2012   4 PPN2012   4 PPN2012    (50)TiO,"8s2.9s1.3p4.1d1 X,3,2,0,55,0","8s2.11s1.3p4.1d1 C,3,2,0,56,2",0.5,1.0,1.0
MgH 1,4788.5213,-1.943,0.014199042246871383,3.5,2.602671313925012,4.5,99.0,99.0,99.0,7.39,0.0,0.0,0.035,_                            18 wl:KMGH  18 gf:KMGH  18 KMGH  18 KMGH  18 KMGH  18 KMGH  18 KMGH  18 KMGH  18 KMGH    (24)MgH,"4s2.5s1 X,2,0,f,4,0","4s2.2p1 A,2,1,f,5,1",0.5,1.0,1.0
CH 1,4788.528,-2.801,1.0550750203582053,7.5,3.6435436964946195,8.5,99.0,99.0,99.0,6.27,0.0,0.0,0.003,_                            37 wl:JLIY  37 gf:JLIY  37 JLIY  37 JLIY  37 JLIY  37 JLIY  37 JLIY  37 JLIY  37 JLIY    (12)CH,"1s2.2s2.3s2.1p1 X,2,1,f,7,3","1s2.2s2.3s1.1p2 A,2,2,f,8,2",0.5,1.0,1.0
TiO 1,4788.5399,0.552,1.6095095383522797,145.0,4.182693194656182,144.0,99.0,99.0,99.0,7.183,0.0,0.0,0.001,_          -28.4330           6 wl:PPN2012   6 gf:PPN2012   6 PPN2012   6 PPN2012   6 PPN2012   6 PPN2012   6 PPN2012   6 PPN2012   6 PPN2012    (48)TiO,"8s2.9s1.3p4.1d1 X,3,2,0,145,2","8s2.11s1.3p4.1d1 C,3,2,0,144,6",0.5,1.0,1.0
TiO 1,4788.5424,0.336,0.6922179458694913,69.0,3.280074102875144,68.0,99.0,99.0,99.0,7.291,0.0,0.0,0.02,_          -1.11904           6 wl:PPN2012   6 gf:PPN2012   6 PPN2012   6 PPN2012   6 PPN2012   6 PPN2012   6 PPN2012   6 PPN2012   6 PPN2012    (48)TiO,"8s2.9s1.3p4.1d1 X,3,2,0,69,3","8s2.11s1.3p4.1d1 C,3,2,0,68,6",0.5,1.0,1.0
TiO 1,4788.5432,-0.711,0.23037946355509314,57.0,2.818879916841319,58.0,99.0,99.0,99.0,7.309,0.0,0.0,0.01,_          0.0740032          2 wl:PPN2012   2 gf:PPN2012   2 PPN2012   2 PPN2012   2 PPN2012   2 PPN2012   2 PPN2012   2 PPN2012   2 PPN2012    (47)TiO,"8s2.9s1.3p4.1d1 X,3,2,0,57,0","8s2.11s1.3p4.1d1 C,3,2,0,58,2",0.5,1.0,1.0
MgH 1,4788.549,-3.153,0.01421404433476527,4.5,2.602671313925012,4.5,99.0,99.0,99.0,7.39,0.0,0.0,0.002,_                            18 wl:KMGH  18 gf:KMGH  18 KMGH  18 KMGH  18 KMGH  18 KMGH  18 KMGH  18 KMGH  18 KMGH    (24)MgH,"4s2.5s1 X,2,0,e,4,0","4s2.2p1 A,2,1,f,5,1",0.5,1.0,1.0
TiO 1,4788.557,-0.263,1.0642795079910297,57.0,3.6527325373217234,56.0,99.0,99.0,99.0,7.271,0.0,0.0,0.001,_                             6 wl:PPN2012   6 gf:PPN2012   6 PPN2012   6 PPN2012   6 PPN2012   6 PPN2012   6 PPN2012   6 PPN2012   6 PPN2012    (48)TiO,"8s2.9s1.3p4.1d1 X,3,2,0,57,7","8s2.11s1.3p4.1d1 C,3,2,0,56,11",0.5,1.0,1.0
CH 1,4788.572,-2.846,1.0551211424796643,6.5,3.6435660136501644,7.5,99.0,99.0,99.0,6.27,0.0,0.0,0.002,_                            37 wl:JLIY  37 gf:JLIY  37 JLIY  37 JLIY  37 JLIY  37 JLIY  37 JLIY  37 JLIY  37 JLIY    (12)CH,"1s2.2s2.3s2.1p1 X,2,1,f,7,3","1s2.2s2.3s1.1p2 A,2,2,f,8,2",0.5,1.0,1.0
TiO 1,4788.5807,-0.9,0.2117637074449039,53.0,2.8002501753136553,54.0,99.0,99.0,99.0,7.311,0.0,0.0,0.006999999999999999,_          0.0856379          4 wl:PPN2012   4 gf:PPN2012   4 PPN2012   4 PPN2012   4 PPN2012   4 PPN2012   4 PPN2012   4 PPN2012   4 PPN2012    (50)TiO,"8s2.9s1.3p4.1d1 X,3,2,0,54,0","8s2.11s1.3p4.1d1 C,3,2,0,55,2",0.5,1.0,1.0
TiO 1,4788.5813,0.483,1.3167566874596432,114.0,3.905196475278047,113.0,99.0,99.0,99.0,7.233,0.0,0.0,0.003,_                             6 wl:PPN2012   6 gf:PPN2012   6 PPN2012   6 PPN2012   6 PPN2012   6 PPN2012   6 PPN2012   6 PPN2012   6 PPN2012    (48)TiO,"8s2.9s1.3p4.1d1 X,3,2,0,113,4","8s2.11s1.3p4.1d1 C,3,2,0,112,8",0.5,1.0,1.0
TiO 1,4788.5983,0.081,1.109725407238495,33.0,3.698156131812064,32.0,99.0,99.0,99.0,7.367000000000001,0.0,0.0,0.002,_                             6 wl:PPN2012   6 gf:PPN2012   6 PPN2012   6 PPN2012   6 PPN2012   6 PPN2012   6 PPN2012   6 PPN2012   6 PPN2012    (48)TiO,"8s2.9s1.3p4.1d1 a,1,2,0,33,5","8s2.11s1.3p4.1d1 f,1,2,0,32,8",0.5,1.0,1.0
MgH 1,4788.6162,-1.176,0.3671722576927235,5.5,2.955593199913112,5.5,99.0,99.0,99.0,7.39,0.0,0.0,0.057999999999999996,_                            18 wl:KMGH  18 gf:KMGH  18 KMGH  18 KMGH  18 KMGH  18 KMGH  18 KMGH  18 KMGH  18 KMGH    (24)MgH,"4s2.5s1 X,2,0,e,5,2","4s2.2p1 A,2,1,f,5,3",0.5,1.0,1.0
CH 1,4788.621,-2.492,1.149265319239471,22.5,3.737683905760108,22.5,99.0,99.0,99.0,6.27,0.0,0.0,0.004,_                            37 wl:JLIY  37 gf:JLIY  37 JLIY  37 JLIY  37 JLIY  37 JLIY  37 JLIY  37 JLIY  37 JLIY    (12)CH,"1s2.2s2.3s2.1p1 X,2,1,f,22,1","1s2.2s2.3s1.1p2 A,2,2,e,22,0",0.5,1.0,1.0
TiO 1,4788.6251,-0.884,0.10233969339203902,39.0,2.690786263146044,38.0,99.0,99.0,99.0,7.321000000000001,0.0,0.0,0.011000000000000001,_          0.0561201          2 wl:PPN2012   2 gf:PPN2012   2 PPN2012   2 PPN2012   2 PPN2012   2 PPN2012   2 PPN2012   2 PPN2012   2 PPN2012    (47)TiO,"8s2.9s1.3p4.1d1 X,3,2,0,38,0","8s2.11s1.3p4.1d1 C,3,2,0,37,2",0.5,1.0,1.0
TiO 1,4788.6276,-1.013,0.6007676853538956,41.0,3.1891825275517682,40.0,99.0,99.0,99.0,7.305,0.0,0.0,0.001,_                             2 wl:PPN2012   2 gf:PPN2012   2 PPN2012   2 PPN2012   2 PPN2012   2 PPN2012   2 PPN2012   2 PPN2012   2 PPN2012    (47)TiO,"8s2.9s1.3p4.1d1 X,3,2,0,40,4","8s2.11s1.3p4.1d1 C,3,2,0,39,7",0.5,1.0,1.0
TiO 1,4788.6317,-0.6579999999999999,0.22553793023756363,58.0,2.81394670960818,59.0,99.0,99.0,99.0,7.308,0.0,0.0,0.012,_          -0.00705764        3 wl:PPN2012   3 gf:PPN2012   3 PPN2012   3 PPN2012   3 PPN2012   3 PPN2012   3 PPN2012   3 PPN2012   3 PPN2012    (46)TiO,"8s2.9s1.3p4.1d1 X,3,2,0,57,0","8s2.11s1.3p4.1d1 C,3,2,0,58,2",0.5,1.0,1.0
TiO 1,4788.6452,-1.073,0.10667441650556987,35.0,2.6951348848881116,34.0,99.0,99.0,99.0,7.322,0.0,0.0,0.006999999999999999,_          0.102148           8 wl:PPN2012   8 gf:PPN2012   8 PPN2012   8 PPN2012   8 PPN2012   8 PPN2012   8 PPN2012   8 PPN2012   8 PPN2012    (49)TiO,"8s2.9s1.3p4.1d1 X,3,2,0,36,0","8s2.11s1.3p4.1d1 C,3,2,0,35,2",0.5,1.0,1.0
TiO 1,4788.653,0.40700000000000003,0.8562242050877164,84.0,3.4443480811709666,85.0,99.0,99.0,99.0,7.274,0.0,0.0,0.013000000000000001,_          -0.513038          6 wl:PPN2012   6 gf:PPN2012   6 PPN2012   6 PPN2012   6 PPN2012   6 PPN2012   6 PPN2012   6 PPN2012   6 PPN2012    (48)TiO,"8s2.9s1.3p4.1d1 X,3,2,0,85,3","8s2.11s1.3p4.1d1 C,3,2,0,86,6",0.5,1.0,1.0
Co 1,4788.6663,-6.381,2.7177335890796703,2.5,5.306127475592471,1.5,1.18,0.41,1.76,8.61,-5.9,-7.72,0.003,"_          Kurucz CoI 2008   12 wl:K08  12 gf:K08  12 K08  12 K08  12 K08  12 K08  12 K08  12 K08  12 K08   hfs:P,P Co",3p6.3d7.4s2 b2D,3p6.3d7.(4F).4s.4p.(1P*) x4F*,0.5,1.0,1.0
TiO 1,4788.6698,-0.856,0.20713178181161743,56.0,2.7955212940379472,57.0,99.0,99.0,99.0,7.31,0.0,0.0,0.008,_          -0.00454259        8 wl:PPN2012   8 gf:PPN2012   8 PPN2012   8 PPN2012   8 PPN2012   8 PPN2012   8 PPN2012   8 PPN2012   8 PPN2012    (49)TiO,"8s2.9s1.3p4.1d1 X,3,2,0,55,0","8s2.11s1.3p4.1d1 C,3,2,0,56,2",0.5,1.0,1.0
Zr 1,4788.67,-1.19,0.7301342600077565,5.0,3.318518874858286,5.0,1.37,1.24,1.31,0.0,0.0,0.0,0.779,_          Cu 1 - Ba 2 Bell  17 wl:CB  17 gf:CB  17 CB  17 CB  17 CB  17 CB  17 CB  17 CB  17 CB    Zr,4d3.(b4F).5s a5F,4d3.(b4F).5p y5G*,0.5,1.0,1.0
TiO 1,4788.6716,-0.514,0.7854667087551689,88.0,3.3737600340411014,87.0,99.0,99.0,99.0,7.275,0.0,0.0,0.002,_          -0.180915          2 wl:PPN2012   2 gf:PPN2012   2 PPN2012   2 PPN2012   2 PPN2012   2 PPN2012   2 PPN2012   2 PPN2012   2 PPN2012    (47)TiO,"8s2.9s1.3p4.1d1 X,3,2,0,89,2","8s2.11s1.3p4.1d1 C,3,2,0,88,5",0.5,1.0,1.0
CH 1,4788.677,-2.512,1.149215725560483,21.5,3.7376036879843446,21.5,99.0,99.0,99.0,6.27,0.0,0.0,0.004,_                            37 wl:JLIY  37 gf:JLIY  37 JLIY  37 JLIY  37 JLIY  37 JLIY  37 JLIY  37 JLIY  37 JLIY    (12)CH,"1s2.2s2.3s2.1p1 X,2,1,e,22,1","1s2.2s2.3s1.1p2 A,2,2,f,22,0",0.5,1.0,1.0
TiO 1,4788.6789,-1.064,0.09084865199421142,37.0,2.6792706108850193,36.0,99.0,99.0,99.0,7.322,0.0,0.0,0.008,_          0.0644844          4 wl:PPN2012   4 gf:PPN2012   4 PPN2012   4 PPN2012   4 PPN2012   4 PPN2012   4 PPN2012   4 PPN2012   4 PPN2012    (50)TiO,"8s2.9s1.3p4.1d1 X,3,2,0,36,0","8s2.11s1.3p4.1d1 C,3,2,0,35,2",0.5,1.0,1.0
TiO 1,4788.6872,-0.659,0.6803259643738847,69.0,3.2690271108805558,68.0,99.0,99.0,99.0,7.291,0.0,0.0,0.002,_          0.589249           2 wl:PPN2012   2 gf:PPN2012   2 PPN2012   2 PPN2012   2 PPN2012   2 PPN2012   2 PPN2012   2 PPN2012   2 PPN2012    (47)TiO,"8s2.9s1.3p4.1d1 X,3,2,0,68,3","8s2.11s1.3p4.1d1 C,3,2,0,67,6",0.5,1.0,1.0
Co 1,4788.6876,-5.516,2.7177451320084547,2.5,5.306127475592471,1.5,1.18,0.41,1.76,8.61,-5.9,-7.72,0.003,"_          Kurucz CoI 2008   12 wl:K08  12 gf:K08  12 K08  12 K08  12 K08  12 K08  12 K08  12 K08  12 K08   hfs:P,P Co",3p6.3d7.4s2 b2D,3p6.3d7.(4F).4s.4p.(1P*) x4F*,0.5,1.0,1.0
Co 1,4788.6891,-5.952999999999999,2.717724833315645,2.5,5.306106383648766,1.5,1.18,0.41,1.76,8.61,-5.9,-7.72,0.003,"_          Kurucz CoI 2008   12 wl:K08  12 gf:K08  12 K08  12 K08  12 K08  12 K08  12 K08  12 K08  12 K08   hfs:P,P Co",3p6.3d7.4s2 b2D,3p6.3d7.(4F).4s.4p.(1P*) x4F*,0.5,1.0,1.0
TiO 1,4788.6912,-1.065,0.10318221560752752,37.0,2.691611501964406,36.0,99.0,99.0,99.0,7.322,0.0,0.0,0.006999999999999999,_          0.0903787          4 wl:PPN2012   4 gf:PPN2012   4 PPN2012   4 PPN2012   4 PPN2012   4 PPN2012   4 PPN2012   4 PPN2012   4 PPN2012    (50)TiO,"8s2.9s1.3p4.1d1 X,3,2,0,37,0","8s2.11s1.3p4.1d1 C,3,2,0,36,2",0.5,1.0,1.0
TiO 1,4788.6953,0.511,0.8318709066617205,95.0,3.4123595383026863,94.0,99.0,99.0,99.0,7.268,0.0,0.0,0.018000000000000002,_          -14.6411           6 wl:PPN2012   6 gf:PPN2012   6 PPN2012   6 PPN2012   6 PPN2012   6 PPN2012   6 PPN2012   6 PPN2012   6 PPN2012    (48)TiO,"8s2.9s1.3p4.1d1 X,3,2,0,94,2","8s2.11s1.3p4.1d1 C,3,2,0,93,5",0.5,1.0,1.0
TiO 1,4788.7022,-0.885,0.11481282601644725,39.0,2.70323551641402,38.0,99.0,99.0,99.0,7.321000000000001,0.0,0.0,0.011000000000000001,_          0.0890745          2 wl:PPN2012   2 gf:PPN2012   2 PPN2012   2 PPN2012   2 PPN2012   2 PPN2012   2 PPN2012   2 PPN2012   2 PPN2012    (47)TiO,"8s2.9s1.3p4.1d1 X,3,2,0,39,0","8s2.11s1.3p4.1d1 C,3,2,0,38,2",0.5,1.0,1.0
Co 1,4788.7053,-5.355,2.7177335890796703,2.5,5.306106383648766,1.5,1.18,0.41,1.76,8.61,-5.9,-7.72,0.003,"_          Kurucz CoI 2008   12 wl:K08  12 gf:K08  12 K08  12 K08  12 K08  12 K08  12 K08  12 K08  12 K08   hfs:P,P Co",3p6.3d7.4s2 b2D,3p6.3d7.(4F).4s.4p.(1P*) x4F*,0.5,1.0,1.0
Co 1,4788.7087,-5.702999999999999,2.7177185455810546,2.5,5.306089510143395,1.5,1.18,0.41,1.76,8.61,-5.9,-7.72,0.003,"_          Kurucz CoI 2008   12 wl:K08  12 gf:K08  12 K08  12 K08  12 K08  12 K08  12 K08  12 K08  12 K08   hfs:P,P Co",3p6.3d7.4s2 b2D,3p6.3d7.(4F).4s.4p.(1P*) x4F*,0.5,1.0,1.0
Co 1,4788.7149,-4.89,2.7177598609591613,2.5,5.306127475592471,1.5,1.18,0.41,1.76,8.61,-5.9,-7.72,0.003,"_          Kurucz CoI 2008   12 wl:K08  12 gf:K08  12 K08  12 K08  12 K08  12 K08  12 K08  12 K08  12 K08   hfs:P,P Co",3p6.3d7.4s2 b2D,3p6.3d7.(4F).4s.4p.(1P*) x4F*,0.5,1.0,1.0
Co 1,4788.7203,-5.3629999999999995,2.717724833315645,2.5,5.306089510143395,1.5,1.18,0.41,1.76,8.61,-5.9,-7.72,0.003,"_          Kurucz CoI 2008   12 wl:K08  12 gf:K08  12 K08  12 K08  12 K08  12 K08  12 K08  12 K08  12 K08   hfs:P,P Co",3p6.3d7.4s2 b2D,3p6.3d7.(4F).4s.4p.(1P*) x4F*,0.5,1.0,1.0
TiO 1,4788.7241,-0.8270000000000001,0.6843433871292501,67.0,3.272761638892553,66.0,99.0,99.0,99.0,7.292000000000001,0.0,0.0,0.001,_          0.102814           4 wl:PPN2012   4 gf:PPN2012   4 PPN2012   4 PPN2012   4 PPN2012   4 PPN2012   4 PPN2012   4 PPN2012   4 PPN2012    (50)TiO,"8s2.9s1.3p4.1d1 X,3,2,0,68,3","8s2.11s1.3p4.1d1 C,3,2,0,67,6",0.5,1.0,1.0
Co 1,4788.7246,-5.527,2.7177144867103817,2.5,5.306076854952376,1.5,1.18,0.41,1.76,8.61,-5.9,-7.72,0.003,"_          Kurucz CoI 2008   12 wl:K08  12 gf:K08  12 K08  12 K08  12 K08  12 K08  12 K08  12 K08  12 K08   hfs:P,P Co",3p6.3d7.4s2 b2D,3p6.3d7.(4F).4s.4p.(1P*) x4F*,0.5,1.0,1.0
Co 1,4788.7267,-5.106,2.7177451320084547,2.5,5.306106383648766,1.5,1.18,0.41,1.76,8.61,-5.9,-7.72,0.003,"_          Kurucz CoI 2008   12 wl:K08  12 gf:K08  12 K08  12 K08  12 K08  12 K08  12 K08  12 K08  12 K08   hfs:P,P Co",3p6.3d7.4s2 b2D,3p6.3d7.(4F).4s.4p.(1P*) x4F*,0.5,1.0,1.0
Co 1,4788.7321,-5.527,2.7177185455810546,2.5,5.306076854952376,1.5,1.18,0.41,1.76,8.61,-5.9,-7.72,0.003,"_          Kurucz CoI 2008   12 wl:K08  12 gf:K08  12 K08  12 K08  12 K08  12 K08  12 K08  12 K08  12 K08   hfs:P,P Co",3p6.3d7.4s2 b2D,3p6.3d7.(4F).4s.4p.(1P*) x4F*,0.5,1.0,1.0
TiO 1,4788.7325,0.5479999999999999,0.9812079259625885,104.0,3.569230916104357,105.0,99.0,99.0,99.0,7.252000000000001,0.0,0.0,0.011000000000000001,_          -0.620099          6 wl:PPN2012   6 gf:PPN2012   6 PPN2012   6 PPN2012   6 PPN2012   6 PPN2012   6 PPN2012   6 PPN2012   6 PPN2012    (48)TiO,"8s2.9s1.3p4.1d1 X,3,2,0,105,2","8s2.11s1.3p4.1d1 C,3,2,0,106,5",0.5,1.0,1.0
Co 1,4788.7365,-5.388999999999999,2.7177335890796703,2.5,5.306089510143395,1.5,1.18,0.41,1.76,8.61,-5.9,-7.72,0.003,"_          Kurucz CoI 2008   12 wl:K08  12 gf:K08  12 K08  12 K08  12 K08  12 K08  12 K08  12 K08  12 K08   hfs:P,P Co",3p6.3d7.4s2 b2D,3p6.3d7.(4F).4s.4p.(1P*) x4F*,0.5,1.0,1.0
TiO 1,4788.7372,-0.544,0.8315031199383451,84.0,3.4218394940254493,85.0,99.0,99.0,99.0,7.275,0.0,0.0,0.001,_          3.66180            3 wl:PPN2012   3 gf:PPN2012   3 PPN2012   3 PPN2012   3 PPN2012   3 PPN2012   3 PPN2012   3 PPN2012   3 PPN2012    (46)TiO,"8s2.9s1.3p4.1d1 X,3,2,0,83,3","8s2.11s1.3p4.1d1 C,3,2,0,84,6",0.5,1.0,1.0
Ce 2,4788.739,-2.47,0.7395528435527721,3.5,3.327907454227514,4.5,1.33,0.95,0.29,0.0,0.0,0.0,0.027000000000000003,C 0.014    Ce 2: DREAM data  15 wl:PQWB  15 gf:PQWB  15 PQWB  15 PQWB  15 PQWB  15 PQWB  15 PQWB  15 PQWB  15 PQWB    Ce+,4f.(2F*).5d2.(3F) 4F*,4f.5d.(3H*).6p 4f.5d.(3H*).6p,0.014,1.0,2.0
TiO 1,4788.74,0.314,1.1539353328182205,60.0,3.742289422759333,59.0,99.0,99.0,99.0,7.3629999999999995,0.0,0.0,0.003,_                             6 wl:PPN2012   6 gf:PPN2012   6 PPN2012   6 PPN2012   6 PPN2012   6 PPN2012   6 PPN2012   6 PPN2012   6 PPN2012    (48)TiO,"8s2.9s1.3p4.1d1 a,1,2,0,60,4","8s2.11s1.3p4.1d1 f,1,2,0,59,7",0.5,1.0,1.0
Co 1,4788.7437,-5.827999999999999,2.717724833315645,2.5,5.306076854952376,1.5,1.18,0.41,1.76,8.61,-5.9,-7.72,0.003,"_          Kurucz CoI 2008   12 wl:K08  12 gf:K08  12 K08  12 K08  12 K08  12 K08  12 K08  12 K08  12 K08   hfs:P,P Co",3p6.3d7.4s2 b2D,3p6.3d7.(4F).4s.4p.(1P*) x4F*,0.5,1.0,1.0
TiO 1,4788.7443,0.243,0.9603231226560788,119.0,3.5487009927662663,118.0,99.0,99.0,99.0,7.237,0.0,0.0,0.006,_          0.0483150          6 wl:PPN2012   6 gf:PPN2012   6 PPN2012   6 PPN2012   6 PPN2012   6 PPN2012   6 PPN2012   6 PPN2012   6 PPN2012    (48)TiO,"8s2.9s1.3p4.1d1 X,3,2,0,120,0","8s2.11s1.3p4.1d1 C,3,2,0,119,3",0.5,1.0,1.0
CH 1,4788.747,-2.846,0.7764009470408939,7.5,3.3647513422529216,8.5,99.0,99.0,99.0,6.27,0.0,0.0,0.005,_                            37 wl:JLIY  37 gf:JLIY  37 JLIY  37 JLIY  37 JLIY  37 JLIY  37 JLIY  37 JLIY  37 JLIY    (12)CH,"1s2.2s2.3s2.1p1 X,2,1,e,8,2","1s2.2s2.3s1.1p2 A,2,2,e,9,1",0.5,1.0,1.0
TiO 1,4788.753,-0.674,0.23787673838243273,56.0,2.826269375010539,57.0,99.0,99.0,99.0,7.309,0.0,0.0,0.011000000000000001,_          0.0843229          3 wl:PPN2012   3 gf:PPN2012   3 PPN2012   3 PPN2012   3 PPN2012   3 PPN2012   3 PPN2012   3 PPN2012   3 PPN2012    (46)TiO,"8s2.9s1.3p4.1d1 X,3,2,0,57,0","8s2.11s1.3p4.1d1 C,3,2,0,58,2",0.5,1.0,1.0
Fe 1,4788.7564,-1.7630000000000001,3.2367200526089746,6.0,5.825065240484709,6.0,1.17,1.2,1.18,7.42,-5.88,-7.7589999999999995,0.86,E 0.064    Kurucz Fe I 2014   5 wl:K14  35 gf:BWL   5 K14   5 K14   5 K14   5 K14   5 K14  25 BPM   5 K14    Fe,3d7.(2H).4s b3H,3d6.(3H).4s.4p.(3P*) z3H*,1.158777356155126,1.0,1.0
Ce 2,4788.7587,-2.42,0.823039090729652,4.5,3.4113830387634114,3.5,1.22,1.36,0.96,0.0,0.0,0.0,0.023,C 0.007    Ce 2: DREAM data  15 wl:PQWB  15 gf:PQWB  15 PQWB  15 PQWB  15 PQWB  15 PQWB  15 PQWB  15 PQWB  15 PQWB    Ce+,4f.(2F*).5d2.(3F) *,4f2.(3P).5d 4D,0.007,1.0,2.0
TiO 1,4788.7604,0.337,1.231787663671539,99.0,3.820130669425398,98.0,99.0,99.0,99.0,7.249,0.0,0.0,0.003,_                             6 wl:PPN2012   6 gf:PPN2012   6 PPN2012   6 PPN2012   6 PPN2012   6 PPN2012   6 PPN2012   6 PPN2012   6 PPN2012    (48)TiO,"8s2.9s1.3p4.1d1 X,3,2,0,98,5","8s2.11s1.3p4.1d1 C,3,2,0,97,9",0.5,1.0,1.0
Fe 1,4788.7782,-2.523,4.142648902541477,3.0,6.730982311918452,3.0,1.07,1.33,1.2,7.95,-5.22,-7.58,0.34600000000000003,_          Kurucz Fe I 2014   5 wl:K14   5 gf:K14   5 K14   5 K14   5 K14   5 K14   5 K14   5 K14   5 K14    Fe,3d8 c3F,3d7.(4F).5p 3F*,0.5,1.0,1.0
TiO 1,4788.7872,-0.665,0.700496060774078,68.0,3.2888705337172546,67.0,99.0,99.0,99.0,7.291,0.0,0.0,0.002,_          0.0848368          2 wl:PPN2012   2 gf:PPN2012   2 PPN2012   2 PPN2012   2 PPN2012   2 PPN2012   2 PPN2012   2 PPN2012   2 PPN2012    (47)TiO,"8s2.9s1.3p4.1d1 X,3,2,0,69,3","8s2.11s1.3p4.1d1 C,3,2,0,68,6",0.5,1.0,1.0
TiO 1,4788.8043,-0.841,0.7320075496457523,57.0,3.3203269364099928,58.0,99.0,99.0,99.0,7.295,0.0,0.0,0.001,_                             3 wl:PPN2012   3 gf:PPN2012   3 PPN2012   3 PPN2012   3 PPN2012   3 PPN2012   3 PPN2012   3 PPN2012   3 PPN2012    (46)TiO,"8s2.9s1.3p4.1d1 X,3,2,0,58,4","8s2.11s1.3p4.1d1 C,3,2,0,59,7",0.5,1.0,1.0