species,wlcent,gflog,excit,j_lo,e_upp,j_up,lande_lower,lande_upper,lande,gamrad,gamqst,gamvw,depth,reference,term_lower,term_upper,error,atom_number,ionization
V 1,4803.0783,-5.052,1.9495785070418068,3.5,4.5302058710485,4.5,1.22,1.05,0.75,7.88,-6.08,-7.77,0.14800000000000002,"_          Wisconsin Sc-Mn_  24 wl:LWDFSC  24 gf:LWDFSC  24 LWDFSC  24 LWDFSC  19 K09  19 K09  19 K09  19 K09  19 K09   hfs:UBDE,GYDE V",3d4.(3F2).4s b4F,3d4.(3G).4p x2G*,0.5,1.0,1.0
TiO 1,4803.0958,-1.466,0.12728201594337593,6.0,2.707983119303546,7.0,99.0,99.0,99.0,7.332000000000001,0.0,0.0,0.003,_          0.154696           3 wl:PPN2012   3 gf:PPN2012   3 PPN2012   3 PPN2012   3 PPN2012   3 PPN2012   3 PPN2012   3 PPN2012   3 PPN2012    (46)TiO,"8s2.9s1.3p4.1d1 X,3,2,0,5,1","8s2.11s1.3p4.1d1 C,3,2,0,6,3",0.5,1.0,1.0
TiO 1,4803.1,-1.295,0.47337040130213165,26.0,3.053986067151825,27.0,99.0,99.0,99.0,7.409,0.0,0.0,0.001,_                             3 wl:PPN2012   3 gf:PPN2012   3 PPN2012   3 PPN2012   3 PPN2012   3 PPN2012   3 PPN2012   3 PPN2012   3 PPN2012    (46)TiO,"8s2.9s1.3p4.1d1 a,1,2,0,26,0","8s2.11s1.3p4.1d1 f,1,2,0,27,2",0.5,1.0,1.0
TiO 1,4803.1054,-0.634,0.32178414747969886,68.0,2.902428652053724,69.0,99.0,99.0,99.0,7.3,0.0,0.0,0.009000000000000001,_          0.0590892          2 wl:PPN2012   2 gf:PPN2012   2 PPN2012   2 PPN2012   2 PPN2012   2 PPN2012   2 PPN2012   2 PPN2012   2 PPN2012    (47)TiO,"8s2.9s1.3p4.1d1 X,3,2,0,68,0","8s2.11s1.3p4.1d1 C,3,2,0,69,2",0.5,1.0,1.0
TiO 1,4803.1214,-1.192,0.13477564563530992,12.0,2.7154294862194046,13.0,99.0,99.0,99.0,7.329,0.0,0.0,0.005,_          0.0924209          3 wl:PPN2012   3 gf:PPN2012   3 PPN2012   3 PPN2012   3 PPN2012   3 PPN2012   3 PPN2012   3 PPN2012   3 PPN2012    (46)TiO,"8s2.9s1.3p4.1d1 X,3,2,0,11,1","8s2.11s1.3p4.1d1 C,3,2,0,12,3",0.5,1.0,1.0
TiO 1,4803.1416,-0.9229999999999999,0.17210478301277632,49.0,2.752741910527052,48.0,99.0,99.0,99.0,7.316,0.0,0.0,0.008,_          0.0814220          8 wl:PPN2012   8 gf:PPN2012   8 PPN2012   8 PPN2012   8 PPN2012   8 PPN2012   8 PPN2012   8 PPN2012   8 PPN2012    (49)TiO,"8s2.9s1.3p4.1d1 X,3,2,0,49,0","8s2.11s1.3p4.1d1 C,3,2,0,48,2",0.5,1.0,1.0
TiO 1,4803.1583,-1.1059999999999999,0.15177627200347554,15.0,2.7323941199750443,16.0,99.0,99.0,99.0,7.327999999999999,0.0,0.0,0.006,_          0.0623608          3 wl:PPN2012   3 gf:PPN2012   3 PPN2012   3 PPN2012   3 PPN2012   3 PPN2012   3 PPN2012   3 PPN2012   3 PPN2012    (46)TiO,"8s2.9s1.3p4.1d1 X,3,2,0,15,1","8s2.11s1.3p4.1d1 C,3,2,0,16,3",0.5,1.0,1.0
TiO 1,4803.1717,-0.765,0.7550567326890784,76.0,3.3346916215446845,75.0,99.0,99.0,99.0,7.285,0.0,0.0,0.001,_          -1.75455           8 wl:PPN2012   8 gf:PPN2012   8 PPN2012   8 PPN2012   8 PPN2012   8 PPN2012   8 PPN2012   8 PPN2012   8 PPN2012    (49)TiO,"8s2.9s1.3p4.1d1 X,3,2,0,76,3","8s2.11s1.3p4.1d1 C,3,2,0,75,6",0.5,1.0,1.0
TiO 1,4803.1763,0.16,0.7934011766596276,67.0,3.373975890528897,68.0,99.0,99.0,99.0,7.287000000000001,0.0,0.0,0.009000000000000001,_                             6 wl:PPN2012   6 gf:PPN2012   6 PPN2012   6 PPN2012   6 PPN2012   6 PPN2012   6 PPN2012   6 PPN2012   6 PPN2012    (48)TiO,"8s2.9s1.3p4.1d1 X,3,2,0,67,4","8s2.11s1.3p4.1d1 C,3,2,0,68,7",0.5,1.0,1.0
TiO 1,4803.1768,-1.537,0.126493129291713,5.0,2.7071575085325925,6.0,99.0,99.0,99.0,7.332999999999999,0.0,0.0,0.002,_          0.167526           3 wl:PPN2012   3 gf:PPN2012   3 PPN2012   3 PPN2012   3 PPN2012   3 PPN2012   3 PPN2012   3 PPN2012   3 PPN2012    (46)TiO,"8s2.9s1.3p4.1d1 X,3,2,0,4,1","8s2.11s1.3p4.1d1 C,3,2,0,5,3",0.5,1.0,1.0
TiO 1,4803.1803,-0.7759999999999999,0.1803980983799729,50.0,2.7610140121980615,49.0,99.0,99.0,99.0,7.315,0.0,0.0,0.011000000000000001,_          0.0805595          2 wl:PPN2012   2 gf:PPN2012   2 PPN2012   2 PPN2012   2 PPN2012   2 PPN2012   2 PPN2012   2 PPN2012   2 PPN2012    (47)TiO,"8s2.9s1.3p4.1d1 X,3,2,0,50,0","8s2.11s1.3p4.1d1 C,3,2,0,49,2",0.5,1.0,1.0
TiO 1,4803.1823,0.156,0.7992425805376551,66.0,3.3798140584193703,67.0,99.0,99.0,99.0,7.287999999999999,0.0,0.0,0.009000000000000001,_                             6 wl:PPN2012   6 gf:PPN2012   6 PPN2012   6 PPN2012   6 PPN2012   6 PPN2012   6 PPN2012   6 PPN2012   6 PPN2012    (48)TiO,"8s2.9s1.3p4.1d1 X,3,2,0,67,4","8s2.11s1.3p4.1d1 C,3,2,0,68,7",0.5,1.0,1.0
Ce 2,4803.2064,-2.2,1.354511983320654,4.5,3.9350704676584742,5.5,0.98,1.14,1.5,0.0,0.0,0.0,0.006,C-0.023    Ce 2: DREAM data  15 wl:PQWB  15 gf:PQWB  15 PQWB  15 PQWB  15 PQWB  15 PQWB  15 PQWB  15 PQWB  15 PQWB    Ce+,4f.(2F*).5d2.(1G) 2H*,4f.5d.(3G*).6p 4H,0.023,1.0,2.0
TiO 1,4803.2108,-1.159,0.13648454462588017,13.0,2.717086039081803,14.0,99.0,99.0,99.0,7.327999999999999,0.0,0.0,0.005,_          0.0843305          3 wl:PPN2012   3 gf:PPN2012   3 PPN2012   3 PPN2012   3 PPN2012   3 PPN2012   3 PPN2012   3 PPN2012   3 PPN2012    (46)TiO,"8s2.9s1.3p4.1d1 X,3,2,0,12,1","8s2.11s1.3p4.1d1 C,3,2,0,13,3",0.5,1.0,1.0
TiO 1,4803.2386,-0.797,0.2939292625519122,67.0,2.874462280535572,68.0,99.0,99.0,99.0,7.301,0.0,0.0,0.006999999999999999,_          -0.0152830         4 wl:PPN2012   4 gf:PPN2012   4 PPN2012   4 PPN2012   4 PPN2012   4 PPN2012   4 PPN2012   4 PPN2012   4 PPN2012    (50)TiO,"8s2.9s1.3p4.1d1 X,3,2,0,66,0","8s2.11s1.3p4.1d1 C,3,2,0,67,2",0.5,1.0,1.0
TiO 1,4803.2417,0.166,1.3230145418585528,76.0,3.90355405661416,76.0,99.0,99.0,99.0,7.587000000000001,0.0,0.0,0.001,_                             6 wl:PPN2012   6 gf:PPN2012   6 PPN2012   6 PPN2012   6 PPN2012   6 PPN2012   6 PPN2012   6 PPN2012   6 PPN2012    (48)TiO,"8s2.9s1.3p4.1d1 X,3,2,+,75,8","8s2.3p4.4p1.1d1 B,3,1,-,75,11",0.5,1.0,1.0
MgH 1,4803.2507,-1.81,0.008533708327671388,3.5,2.5890683876995775,3.5,99.0,99.0,99.0,7.39,0.0,0.0,0.047,_                            18 wl:KMGH  18 gf:KMGH  18 KMGH  18 KMGH  18 KMGH  18 KMGH  18 KMGH  18 KMGH  18 KMGH    (24)MgH,"4s2.5s1 X,2,0,e,3,0","4s2.2p1 A,2,1,f,3,1",0.5,1.0,1.0
TiO 1,4803.2796,0.428,0.8912842952688622,90.0,3.4743630435839172,91.0,99.0,99.0,99.0,7.268,0.0,0.0,0.012,_          4.75946            6 wl:PPN2012   6 gf:PPN2012   6 PPN2012   6 PPN2012   6 PPN2012   6 PPN2012   6 PPN2012   6 PPN2012   6 PPN2012    (48)TiO,"8s2.9s1.3p4.1d1 X,3,2,0,89,3","8s2.11s1.3p4.1d1 C,3,2,0,90,6",0.5,1.0,1.0
TiO 1,4803.2822,-1.621,0.1258357154830474,4.0,2.7064507986070128,5.0,99.0,99.0,99.0,7.335,0.0,0.0,0.002,_          0.181102           3 wl:PPN2012   3 gf:PPN2012   3 PPN2012   3 PPN2012   3 PPN2012   3 PPN2012   3 PPN2012   3 PPN2012   3 PPN2012    (46)TiO,"8s2.9s1.3p4.1d1 X,3,2,0,3,1","8s2.11s1.3p4.1d1 C,3,2,0,4,3",0.5,1.0,1.0
TiO 1,4803.2837,-0.626,0.7457609554916569,76.0,3.3265714005155758,75.0,99.0,99.0,99.0,7.285,0.0,0.0,0.002,_          0.546240           2 wl:PPN2012   2 gf:PPN2012   2 PPN2012   2 PPN2012   2 PPN2012   2 PPN2012   2 PPN2012   2 PPN2012   2 PPN2012    (47)TiO,"8s2.9s1.3p4.1d1 X,3,2,0,75,3","8s2.11s1.3p4.1d1 C,3,2,0,74,6",0.5,1.0,1.0
MgH 1,4803.287,-1.889,0.9597133187792416,22.5,3.5402285326321445,23.5,99.0,99.0,99.0,7.06,0.0,0.0,0.001,_                            18 wl:KMGH  18 gf:KMGH  18 KMGH  18 KMGH  18 KMGH  18 KMGH  18 KMGH  18 KMGH  18 KMGH    (24)MgH,"4s2.5s1 X,2,0,e,22,4","4s1.5s2/4s2.7s1/4s2.6s1 B,2,0,e,23,7",0.5,1.0,1.0
MgH 1,4803.287,-1.9080000000000001,0.9597133187792416,21.5,3.5402285326321445,22.5,99.0,99.0,99.0,7.06,0.0,0.0,0.001,_                            18 wl:KMGH  18 gf:KMGH  18 KMGH  18 KMGH  18 KMGH  18 KMGH  18 KMGH  18 KMGH  18 KMGH    (24)MgH,"4s2.5s1 X,2,0,f,22,4","4s1.5s2/4s2.7s1/4s2.6s1 B,2,0,f,23,7",0.5,1.0,1.0
Cr 1,4803.2902,-3.141,3.012796409020892,2.0,5.593309887095031,3.0,1.51,1.65,1.79,8.08,-5.87,-7.73,0.09,_          Kurucz Cr I 2016  10 wl:K16  10 gf:K16  10 K16  10 K16  10 K16  10 K16  10 K16  10 K16  10 K16    Cr,3d5.(4D).4s b5D,3d4.(a3P).4s.4p.(3P*) v5P*,0.5,1.0,1.0
TiO 1,4803.3051,-0.672,0.43661073574206527,12.0,3.017116266429146,13.0,99.0,99.0,99.0,7.412000000000001,0.0,0.0,0.005,_                             6 wl:PPN2012   6 gf:PPN2012   6 PPN2012   6 PPN2012   6 PPN2012   6 PPN2012   6 PPN2012   6 PPN2012   6 PPN2012    (48)TiO,"8s2.9s1.3p4.1d1 a,1,2,0,12,0","8s2.11s1.3p4.1d1 f,1,2,0,13,2",0.5,1.0,1.0
TiO 1,4803.3089,0.36200000000000004,0.30568430350141296,68.0,2.8861791591490915,69.0,99.0,99.0,99.0,7.3,0.0,0.0,0.08900000000000001,_          -0.0160172         6 wl:PPN2012   6 gf:PPN2012   6 PPN2012   6 PPN2012   6 PPN2012   6 PPN2012   6 PPN2012   6 PPN2012   6 PPN2012    (48)TiO,"8s2.9s1.3p4.1d1 X,3,2,0,67,0","8s2.11s1.3p4.1d1 C,3,2,0,68,2",0.5,1.0,1.0
TiO 1,4803.3122,-0.708,0.43501598900210575,11.0,3.015517614186966,12.0,99.0,99.0,99.0,7.412000000000001,0.0,0.0,0.005,_                             6 wl:PPN2012   6 gf:PPN2012   6 PPN2012   6 PPN2012   6 PPN2012   6 PPN2012   6 PPN2012   6 PPN2012   6 PPN2012    (48)TiO,"8s2.9s1.3p4.1d1 a,1,2,0,11,0","8s2.11s1.3p4.1d1 f,1,2,0,12,2",0.5,1.0,1.0
TiO 1,4803.3165,-0.638,0.4383382943543548,13.0,3.018837663026821,14.0,99.0,99.0,99.0,7.412000000000001,0.0,0.0,0.005,_                             6 wl:PPN2012   6 gf:PPN2012   6 PPN2012   6 PPN2012   6 PPN2012   6 PPN2012   6 PPN2012   6 PPN2012   6 PPN2012    (48)TiO,"8s2.9s1.3p4.1d1 a,1,2,0,13,0","8s2.11s1.3p4.1d1 f,1,2,0,14,2",0.5,1.0,1.0
CH 1,4803.317,-2.9360000000000004,1.014742464984383,4.5,3.595241436907418,5.5,99.0,99.0,99.0,6.27,0.0,0.0,0.002,_                            37 wl:JLIY  37 gf:JLIY  37 JLIY  37 JLIY  37 JLIY  37 JLIY  37 JLIY  37 JLIY  37 JLIY    (12)CH,"1s2.2s2.3s2.1p1 X,2,1,f,5,3","1s2.2s2.3s1.1p2 A,2,2,f,6,2",0.5,1.0,1.0
TiO 1,4803.3194,0.038,1.216293383310537,30.0,3.796791264172634,31.0,99.0,99.0,99.0,7.361000000000001,0.0,0.0,0.001,_                             6 wl:PPN2012   6 gf:PPN2012   6 PPN2012   6 PPN2012   6 PPN2012   6 PPN2012   6 PPN2012   6 PPN2012   6 PPN2012    (48)TiO,"8s2.9s1.3p4.1d1 a,1,2,0,30,6","8s2.11s1.3p4.1d1 f,1,2,0,31,9",0.5,1.0,1.0
TiO 1,4803.3247,-1.129,0.13832484206892925,14.0,2.7188611208369826,15.0,99.0,99.0,99.0,7.327999999999999,0.0,0.0,0.005,_          0.0768477          3 wl:PPN2012   3 gf:PPN2012   3 PPN2012   3 PPN2012   3 PPN2012   3 PPN2012   3 PPN2012   3 PPN2012   3 PPN2012    (46)TiO,"8s2.9s1.3p4.1d1 X,3,2,0,13,1","8s2.11s1.3p4.1d1 C,3,2,0,14,3",0.5,1.0,1.0
TiO 1,4803.3292,-1.079,0.1539046591277662,16.0,2.7344305604184913,17.0,99.0,99.0,99.0,7.327000000000001,0.0,0.0,0.006,_          0.0620363          3 wl:PPN2012   3 gf:PPN2012   3 PPN2012   3 PPN2012   3 PPN2012   3 PPN2012   3 PPN2012   3 PPN2012   3 PPN2012    (46)TiO,"8s2.9s1.3p4.1d1 X,3,2,0,16,1","8s2.11s1.3p4.1d1 C,3,2,0,17,3",0.5,1.0,1.0
TiO 1,4803.3324,-0.583,0.31800787398841296,69.0,2.898489674100098,70.0,99.0,99.0,99.0,7.2989999999999995,0.0,0.0,0.01,_          -0.0167395         3 wl:PPN2012   3 gf:PPN2012   3 PPN2012   3 PPN2012   3 PPN2012   3 PPN2012   3 PPN2012   3 PPN2012   3 PPN2012    (46)TiO,"8s2.9s1.3p4.1d1 X,3,2,0,68,0","8s2.11s1.3p4.1d1 C,3,2,0,69,2",0.5,1.0,1.0
TiO 1,4803.3379,-0.748,0.43355405413447623,10.0,3.0140419542686767,11.0,99.0,99.0,99.0,7.412999999999999,0.0,0.0,0.004,_                             6 wl:PPN2012   6 gf:PPN2012   6 PPN2012   6 PPN2012   6 PPN2012   6 PPN2012   6 PPN2012   6 PPN2012   6 PPN2012    (48)TiO,"8s2.9s1.3p4.1d1 a,1,2,0,10,0","8s2.11s1.3p4.1d1 f,1,2,0,11,2",0.5,1.0,1.0
TiO 1,4803.3383,0.266,1.0193012771364214,124.0,3.59970251231659,123.0,99.0,99.0,99.0,7.229,0.0,0.0,0.005,_          -0.160944          6 wl:PPN2012   6 gf:PPN2012   6 PPN2012   6 PPN2012   6 PPN2012   6 PPN2012   6 PPN2012   6 PPN2012   6 PPN2012    (48)TiO,"8s2.9s1.3p4.1d1 X,3,2,0,124,0","8s2.11s1.3p4.1d1 C,3,2,0,123,3",0.5,1.0,1.0
MgH 1,4803.3394,-2.657,0.37510055118414826,5.5,2.9555876206242258,5.5,99.0,99.0,99.0,7.39,0.0,0.0,0.002,_                            18 wl:KMGH  18 gf:KMGH  18 KMGH  18 KMGH  18 KMGH  18 KMGH  18 KMGH  18 KMGH  18 KMGH    (24)MgH,"4s2.5s1 X,2,0,f,6,2","4s2.2p1 A,2,1,e,5,3",0.5,1.0,1.0
TiO 1,4803.3434,0.442,0.9667693710430444,95.0,3.542855013871352,96.0,99.0,99.0,99.0,7.2620000000000005,0.0,0.0,0.009000000000000001,_          -8.20288           6 wl:PPN2012   6 gf:PPN2012   6 PPN2012   6 PPN2012   6 PPN2012   6 PPN2012   6 PPN2012   6 PPN2012   6 PPN2012    (48)TiO,"8s2.9s1.3p4.1d1 X,3,2,0,95,3","8s2.11s1.3p4.1d1 C,3,2,0,96,6",0.5,1.0,1.0
TiO 1,4803.3464,-0.607,0.4401986276437151,14.0,3.020681927964189,15.0,99.0,99.0,99.0,7.412000000000001,0.0,0.0,0.006,_                             6 wl:PPN2012   6 gf:PPN2012   6 PPN2012   6 PPN2012   6 PPN2012   6 PPN2012   6 PPN2012   6 PPN2012   6 PPN2012    (48)TiO,"8s2.9s1.3p4.1d1 a,1,2,0,14,0","8s2.11s1.3p4.1d1 f,1,2,0,15,2",0.5,1.0,1.0
V 1,4803.3629,-3.0069999999999997,1.942188896372024,1.5,4.522663319423959,0.5,0.39,0.74,0.3,7.62,-6.12,-7.79,0.02,_          Kurucz V I 2009   19 wl:K09  19 gf:K09  19 K09  19 K09  19 K09  19 K09  19 K09  19 K09  19 K09    V,3d4.(3F2).4s b4F,3d4.(a3P).4p y2P*,0.5,1.0,1.0
TiO 1,4803.3644,0.605,1.2504800668126044,125.0,3.8079583968545707,126.0,99.0,99.0,99.0,7.22,0.0,0.0,0.004,_          -43.1897           6 wl:PPN2012   6 gf:PPN2012   6 PPN2012   6 PPN2012   6 PPN2012   6 PPN2012   6 PPN2012   6 PPN2012   6 PPN2012    (48)TiO,"8s2.9s1.3p4.1d1 X,3,2,0,124,2","8s2.11s1.3p4.1d1 C,3,2,0,125,5",0.5,1.0,1.0
Ce 2,4803.3659,-2.15,1.4042178680074153,2.5,3.9846906792647836,2.5,1.1,1.01,1.06,0.0,0.0,0.0,0.006,C-0.008    Ce 2: DREAM data  15 wl:PQWB  15 gf:PQWB  15 PQWB  15 PQWB  15 PQWB  15 PQWB  15 PQWB  15 PQWB  15 PQWB    Ce+,4f.(2F*).5d2.(3P) 4F*,4f.6s.(3F*).6p 4f.6s.(3F*).6p,0.008,1.0,2.0
TiO 1,4803.3758,0.43,0.9354987462717952,91.0,3.515484634390439,92.0,99.0,99.0,99.0,7.266,0.0,0.0,0.01,_          -0.896695          6 wl:PPN2012   6 gf:PPN2012   6 PPN2012   6 PPN2012   6 PPN2012   6 PPN2012   6 PPN2012   6 PPN2012   6 PPN2012    (48)TiO,"8s2.9s1.3p4.1d1 X,3,2,0,92,3","8s2.11s1.3p4.1d1 C,3,2,0,93,6",0.5,1.0,1.0
MgH 1,4803.3774,-1.5,0.3751210085767308,6.5,2.9555876206242258,5.5,99.0,99.0,99.0,7.39,0.0,0.0,0.027000000000000003,_                            18 wl:KMGH  18 gf:KMGH  18 KMGH  18 KMGH  18 KMGH  18 KMGH  18 KMGH  18 KMGH  18 KMGH    (24)MgH,"4s2.5s1 X,2,0,e,6,2","4s2.2p1 A,2,1,e,5,3",0.5,1.0,1.0
TiO 1,4803.382,-0.7929999999999999,0.4322249559360162,9.0,3.01268916269008,10.0,99.0,99.0,99.0,7.412999999999999,0.0,0.0,0.004,_                             6 wl:PPN2012   6 gf:PPN2012   6 PPN2012   6 PPN2012   6 PPN2012   6 PPN2012   6 PPN2012   6 PPN2012   6 PPN2012    (48)TiO,"8s2.9s1.3p4.1d1 a,1,2,0,9,0","8s2.11s1.3p4.1d1 f,1,2,0,10,2",0.5,1.0,1.0
TiO 1,4803.3949,-0.578,0.4421917108133066,15.0,3.022648937257053,16.0,99.0,99.0,99.0,7.4110000000000005,0.0,0.0,0.006,_                             6 wl:PPN2012   6 gf:PPN2012   6 PPN2012   6 PPN2012   6 PPN2012   6 PPN2012   6 PPN2012   6 PPN2012   6 PPN2012    (48)TiO,"8s2.9s1.3p4.1d1 a,1,2,0,15,0","8s2.11s1.3p4.1d1 f,1,2,0,16,2",0.5,1.0,1.0
TiO 1,4803.4119,-1.7280000000000002,0.12530976211895936,3.0,2.70586286554261,4.0,99.0,99.0,99.0,7.337999999999999,0.0,0.0,0.001,_          0.195443           3 wl:PPN2012   3 gf:PPN2012   3 PPN2012   3 PPN2012   3 PPN2012   3 PPN2012   3 PPN2012   3 PPN2012   3 PPN2012    (46)TiO,"8s2.9s1.3p4.1d1 X,3,2,0,2,1","8s2.11s1.3p4.1d1 C,3,2,0,3,3",0.5,1.0,1.0
TiO 1,4803.4384,0.5670000000000001,1.1691844220303056,126.0,3.7490977669950096,127.0,99.0,99.0,99.0,7.22,0.0,0.0,0.005,_          -0.969075          6 wl:PPN2012   6 gf:PPN2012   6 PPN2012   6 PPN2012   6 PPN2012   6 PPN2012   6 PPN2012   6 PPN2012   6 PPN2012    (48)TiO,"8s2.9s1.3p4.1d1 X,3,2,0,126,1","8s2.11s1.3p4.1d1 C,3,2,0,127,4",0.5,1.0,1.0
TiO 1,4803.4447,-0.843,0.43102873160198496,8.0,3.0114592394511766,9.0,99.0,99.0,99.0,7.412999999999999,0.0,0.0,0.003,_                             6 wl:PPN2012   6 gf:PPN2012   6 PPN2012   6 PPN2012   6 PPN2012   6 PPN2012   6 PPN2012   6 PPN2012   6 PPN2012    (48)TiO,"8s2.9s1.3p4.1d1 a,1,2,0,8,0","8s2.11s1.3p4.1d1 f,1,2,0,9,2",0.5,1.0,1.0
TiO 1,4803.462,-0.55,0.44431753146470965,16.0,3.0247388148896097,17.0,99.0,99.0,99.0,7.4110000000000005,0.0,0.0,0.006,_                             6 wl:PPN2012   6 gf:PPN2012   6 PPN2012   6 PPN2012   6 PPN2012   6 PPN2012   6 PPN2012   6 PPN2012   6 PPN2012    (48)TiO,"8s2.9s1.3p4.1d1 a,1,2,0,16,0","8s2.11s1.3p4.1d1 f,1,2,0,17,2",0.5,1.0,1.0
TiO 1,4803.4629,-1.101,0.1402965131676177,15.0,2.720754855469141,16.0,99.0,99.0,99.0,7.327999999999999,0.0,0.0,0.006,_          0.0699550          3 wl:PPN2012   3 gf:PPN2012   3 PPN2012   3 PPN2012   3 PPN2012   3 PPN2012   3 PPN2012   3 PPN2012   3 PPN2012    (46)TiO,"8s2.9s1.3p4.1d1 X,3,2,0,14,1","8s2.11s1.3p4.1d1 C,3,2,0,15,3",0.5,1.0,1.0
MgH 1,4803.4739,-1.4409999999999998,0.5249640941764127,16.5,3.105378880829365,15.5,99.0,99.0,99.0,7.06,0.0,0.0,0.018000000000000002,_                            18 wl:KMGH  18 gf:KMGH  18 KMGH  18 KMGH  18 KMGH  18 KMGH  18 KMGH  18 KMGH  18 KMGH    (24)MgH,"4s2.5s1 X,2,0,e,16,2","4s1.5s2/4s2.7s1/4s2.6s1 B,2,0,e,15,3",0.5,1.0,1.0
MgH 1,4803.4739,-1.4680000000000002,0.5249640941764127,15.5,3.105378880829365,14.5,99.0,99.0,99.0,7.06,0.0,0.0,0.017,_                            18 wl:KMGH  18 gf:KMGH  18 KMGH  18 KMGH  18 KMGH  18 KMGH  18 KMGH  18 KMGH  18 KMGH    (24)MgH,"4s2.5s1 X,2,0,f,16,2","4s1.5s2/4s2.7s1/4s2.6s1 B,2,0,f,15,3",0.5,1.0,1.0
TiO 1,4803.4782,-0.631,0.7661437839778693,75.0,3.346519094062347,74.0,99.0,99.0,99.0,7.285,0.0,0.0,0.001,_          -0.0692628         2 wl:PPN2012   2 gf:PPN2012   2 PPN2012   2 PPN2012   2 PPN2012   2 PPN2012   2 PPN2012   2 PPN2012   2 PPN2012    (47)TiO,"8s2.9s1.3p4.1d1 X,3,2,0,76,3","8s2.11s1.3p4.1d1 C,3,2,0,75,6",0.5,1.0,1.0
TiO 1,4803.4862,0.503,1.4560268966358623,91.0,4.036435112126349,92.0,99.0,99.0,99.0,7.3420000000000005,0.0,0.0,0.001,_                             6 wl:PPN2012   6 gf:PPN2012   6 PPN2012   6 PPN2012   6 PPN2012   6 PPN2012   6 PPN2012   6 PPN2012   6 PPN2012    (48)TiO,"8s2.9s1.3p4.1d1 a,1,2,0,91,4","8s2.11s1.3p4.1d1 f,1,2,0,92,7",0.5,1.0,1.0
TiO 1,4803.4904,0.33399999999999996,1.2920235758431173,139.0,3.8723171059509442,140.0,99.0,99.0,99.0,7.197,0.0,0.0,0.002,_          -0.209289          6 wl:PPN2012   6 gf:PPN2012   6 PPN2012   6 PPN2012   6 PPN2012   6 PPN2012   6 PPN2012   6 PPN2012   6 PPN2012    (48)TiO,"8s2.9s1.3p4.1d1 X,3,2,0,140,0","8s2.11s1.3p4.1d1 C,3,2,0,141,3",0.5,1.0,1.0
TiO 1,4803.5049,-0.88,0.669237822024156,52.0,3.2496359823962275,51.0,99.0,99.0,99.0,7.3,0.0,0.0,0.001,_                             3 wl:PPN2012   3 gf:PPN2012   3 PPN2012   3 PPN2012   3 PPN2012   3 PPN2012   3 PPN2012   3 PPN2012   3 PPN2012    (46)TiO,"8s2.9s1.3p4.1d1 X,3,2,0,51,4","8s2.11s1.3p4.1d1 C,3,2,0,50,7",0.5,1.0,1.0
TiO 1,4803.5096,-1.365,0.1414261207923483,9.0,2.721858686779218,10.0,99.0,99.0,99.0,7.33,0.0,0.0,0.003,_          0.0687815          2 wl:PPN2012   2 gf:PPN2012   2 PPN2012   2 PPN2012   2 PPN2012   2 PPN2012   2 PPN2012   2 PPN2012   2 PPN2012    (47)TiO,"8s2.9s1.3p4.1d1 X,3,2,0,9,1","8s2.11s1.3p4.1d1 C,3,2,0,10,3",0.5,1.0,1.0
TiO 1,4803.5129,-1.416,0.14023494261515404,8.0,2.7206668266889373,9.0,99.0,99.0,99.0,7.33,0.0,0.0,0.003,_          0.0706617          2 wl:PPN2012   2 gf:PPN2012   2 PPN2012   2 PPN2012   2 PPN2012   2 PPN2012   2 PPN2012   2 PPN2012   2 PPN2012    (47)TiO,"8s2.9s1.3p4.1d1 X,3,2,0,8,1","8s2.11s1.3p4.1d1 C,3,2,0,9,3",0.5,1.0,1.0
TiO 1,4803.5216,0.111,1.2167890473351828,85.0,3.797178218852938,84.0,99.0,99.0,99.0,7.257999999999999,0.0,0.0,0.002,_                             6 wl:PPN2012   6 gf:PPN2012   6 PPN2012   6 PPN2012   6 PPN2012   6 PPN2012   6 PPN2012   6 PPN2012   6 PPN2012    (48)TiO,"8s2.9s1.3p4.1d1 X,3,2,0,86,6","8s2.11s1.3p4.1d1 C,3,2,0,85,10",0.5,1.0,1.0
TiO 1,4803.5251,-1.053,0.15616589531964614,17.0,2.736586397644102,18.0,99.0,99.0,99.0,7.327000000000001,0.0,0.0,0.006,_          0.0619064          3 wl:PPN2012   3 gf:PPN2012   3 PPN2012   3 PPN2012   3 PPN2012   3 PPN2012   3 PPN2012   3 PPN2012   3 PPN2012    (46)TiO,"8s2.9s1.3p4.1d1 X,3,2,0,17,1","8s2.11s1.3p4.1d1 C,3,2,0,18,3",0.5,1.0,1.0