species,wlcent,gflog,excit,j_lo,e_upp,j_up,lande_lower,lande_upper,lande,gamrad,gamqst,gamvw,depth,reference,term_lower,term_upper,error,atom_number,ionization
TiO 1,4789.2221,-0.589,0.8280346620141184,84.0,3.4181085615551785,85.0,99.0,99.0,99.0,7.275,0.0,0.0,0.001,_          3.66180            2 wl:PPN2012   2 gf:PPN2012   2 PPN2012   2 PPN2012   2 PPN2012   2 PPN2012   2 PPN2012   2 PPN2012   2 PPN2012    (47)TiO,"8s2.9s1.3p4.1d1 X,3,2,0,83,3","8s2.11s1.3p4.1d1 C,3,2,0,84,6",0.5,1.0,1.0
TiO 1,4789.2296,0.26899999999999996,0.2281376680853765,55.0,2.8162729011211147,56.0,99.0,99.0,99.0,7.31,0.0,0.0,0.096,_          0.0846738          6 wl:PPN2012   6 gf:PPN2012   6 PPN2012   6 PPN2012   6 PPN2012   6 PPN2012   6 PPN2012   6 PPN2012   6 PPN2012    (48)TiO,"8s2.9s1.3p4.1d1 X,3,2,0,56,0","8s2.11s1.3p4.1d1 C,3,2,0,57,2",0.5,1.0,1.0
TiO 1,4789.231,-0.91,0.11733470178824888,37.0,2.70547715070428,36.0,99.0,99.0,99.0,7.322,0.0,0.0,0.01,_          0.0994437          2 wl:PPN2012   2 gf:PPN2012   2 PPN2012   2 PPN2012   2 PPN2012   2 PPN2012   2 PPN2012   2 PPN2012   2 PPN2012    (47)TiO,"8s2.9s1.3p4.1d1 X,3,2,0,38,0","8s2.11s1.3p4.1d1 C,3,2,0,37,2",0.5,1.0,1.0
TiO 1,4789.2371,0.223,1.3418006274592267,86.0,3.929886068441261,86.0,99.0,99.0,99.0,7.586,0.0,0.0,0.001,_                             6 wl:PPN2012   6 gf:PPN2012   6 PPN2012   6 PPN2012   6 PPN2012   6 PPN2012   6 PPN2012   6 PPN2012   6 PPN2012    (48)TiO,"8s2.9s1.3p4.1d1 X,3,2,-,87,7","8s2.3p4.4p1.1d1 B,3,1,+,87,10",0.5,1.0,1.0
TiO 1,4789.2381,0.48700000000000004,0.7773737270542446,89.0,3.365291417417102,88.0,99.0,99.0,99.0,7.274,0.0,0.0,0.02,_          -0.309463          6 wl:PPN2012   6 gf:PPN2012   6 PPN2012   6 PPN2012   6 PPN2012   6 PPN2012   6 PPN2012   6 PPN2012   6 PPN2012    (48)TiO,"8s2.9s1.3p4.1d1 X,3,2,0,89,2","8s2.11s1.3p4.1d1 C,3,2,0,88,5",0.5,1.0,1.0
TiO 1,4789.2566,-0.456,0.8903489956784069,108.0,3.4757711321145854,107.0,99.0,99.0,99.0,7.252999999999999,0.0,0.0,0.001,_          -4.91403           3 wl:PPN2012   3 gf:PPN2012   3 PPN2012   3 PPN2012   3 PPN2012   3 PPN2012   3 PPN2012   3 PPN2012   3 PPN2012    (46)TiO,"8s2.9s1.3p4.1d1 X,3,2,0,107,1","8s2.11s1.3p4.1d1 C,3,2,0,106,4",0.5,1.0,1.0
Ce 2,4789.2606,-3.32,0.3266569496118303,2.5,2.914729620221525,1.5,0.96,1.18,0.79,0.0,0.0,0.0,0.017,C 0.003    Ce 2: DREAM data  15 wl:PQWB  15 gf:PQWB  15 PQWB  15 PQWB  15 PQWB  15 PQWB  15 PQWB  15 PQWB  15 PQWB    Ce+,4f.5d.(3F*).6s *,4f2.(1D).5d 4f2.(1D).5d,0.003,1.0,2.0
TiO 1,4789.2713,-0.5379999999999999,0.8143752361898962,71.0,3.402442166331248,71.0,99.0,99.0,99.0,7.362,0.0,0.0,0.002,_                             6 wl:PPN2012   6 gf:PPN2012   6 PPN2012   6 PPN2012   6 PPN2012   6 PPN2012   6 PPN2012   6 PPN2012   6 PPN2012    (48)TiO,"8s2.9s1.3p4.1d1 X,3,2,-,70,4","8s2.3p4.4p1.1d1 B,3,1,+,70,8",0.5,1.0,1.0
MgH 1,4789.2744,-1.895,0.01421404433476527,4.5,2.6022792758926117,5.5,99.0,99.0,99.0,7.39,0.0,0.0,0.038,_                            18 wl:KMGH  18 gf:KMGH  18 KMGH  18 KMGH  18 KMGH  18 KMGH  18 KMGH  18 KMGH  18 KMGH    (24)MgH,"4s2.5s1 X,2,0,e,4,0","4s2.2p1 A,2,1,e,5,1",0.5,1.0,1.0
TiO 1,4789.2946,-0.9590000000000001,0.6080945067065533,42.0,3.1961488276550223,41.0,99.0,99.0,99.0,7.305,0.0,0.0,0.001,_                             3 wl:PPN2012   3 gf:PPN2012   3 PPN2012   3 PPN2012   3 PPN2012   3 PPN2012   3 PPN2012   3 PPN2012   3 PPN2012    (46)TiO,"8s2.9s1.3p4.1d1 X,3,2,0,41,4","8s2.11s1.3p4.1d1 C,3,2,0,40,7",0.5,1.0,1.0
TiO 1,4789.3162,0.285,0.22922946052987872,57.0,2.817312136664309,58.0,99.0,99.0,99.0,7.309,0.0,0.0,0.099,_          0.0740032          6 wl:PPN2012   6 gf:PPN2012   6 PPN2012   6 PPN2012   6 PPN2012   6 PPN2012   6 PPN2012   6 PPN2012   6 PPN2012    (48)TiO,"8s2.9s1.3p4.1d1 X,3,2,0,57,0","8s2.11s1.3p4.1d1 C,3,2,0,58,2",0.5,1.0,1.0
TiO 1,4789.3278,0.355,1.4250909796041036,111.0,4.01312732284394,112.0,99.0,99.0,99.0,7.23,0.0,0.0,0.001,_                             6 wl:PPN2012   6 gf:PPN2012   6 PPN2012   6 PPN2012   6 PPN2012   6 PPN2012   6 PPN2012   6 PPN2012   6 PPN2012    (48)TiO,"8s2.9s1.3p4.1d1 X,3,2,0,112,5","8s2.11s1.3p4.1d1 C,3,2,0,113,9",0.5,1.0,1.0
Cr 1,4789.335,-0.33,2.544100311150742,6.0,5.1321328108804565,5.0,1.33,1.4,1.15,8.58,-5.93,-7.56,0.937,_          Wisconsin Sc-Mn_  24 wl:SLS  24 gf:SLS  24 SLS  24 SLS  10 K16  10 K16  10 K16  25 BPM  10 K16    Cr,3d5.(4G).4s a5G,3d4.(5D).4s.4p.(1P*) y5F*,0.5,1.0,1.0
TiO 1,4789.3364,-0.97,0.6281364902355006,41.0,3.2161683080521293,40.0,99.0,99.0,99.0,7.305,0.0,0.0,0.001,_                             3 wl:PPN2012   3 gf:PPN2012   3 PPN2012   3 PPN2012   3 PPN2012   3 PPN2012   3 PPN2012   3 PPN2012   3 PPN2012    (46)TiO,"8s2.9s1.3p4.1d1 X,3,2,0,42,4","8s2.11s1.3p4.1d1 C,3,2,0,41,7",0.5,1.0,1.0
Mo 1,4789.338,-1.99,2.523141278505207,3.0,5.111172414408749,3.0,1.5,1.26,1.38,0.0,0.0,0.0,0.003,_          Cu 1 - Ba 2 Bell  17 wl:WBb  17 gf:WBb  17 WBb  17 WBb  17 WBb  17 WBb  17 WBb  17 WBb  17 WBb    Mo,4d5.(4D).5s b5D,4d5.(4G).5p y5F*,0.5,1.0,1.0
CH 1,4789.345,-2.846,0.776724297827896,7.5,3.364751466237119,8.5,99.0,99.0,99.0,6.27,0.0,0.0,0.005,_                            37 wl:JLIY  37 gf:JLIY  37 JLIY  37 JLIY  37 JLIY  37 JLIY  37 JLIY  37 JLIY  37 JLIY    (12)CH,"1s2.2s2.3s2.1p1 X,2,1,f,8,2","1s2.2s2.3s1.1p2 A,2,2,f,9,1",0.5,1.0,1.0
MgH 1,4789.3721,-0.955,0.30146460052787516,13.5,2.8894770148175994,13.5,99.0,99.0,99.0,7.39,0.0,0.0,0.113,_                            18 wl:KMGH  18 gf:KMGH  18 KMGH  18 KMGH  18 KMGH  18 KMGH  18 KMGH  18 KMGH  18 KMGH    (24)MgH,"4s2.5s1 X,2,0,e,13,1","4s2.2p1 A,2,1,f,13,2",0.5,1.0,1.0
TiO 1,4789.3737,-0.37200000000000005,1.003601554960211,50.0,3.5916131633526516,50.0,99.0,99.0,99.0,7.507000000000001,0.0,0.0,0.001,_                             6 wl:PPN2012   6 gf:PPN2012   6 PPN2012   6 PPN2012   6 PPN2012   6 PPN2012   6 PPN2012   6 PPN2012   6 PPN2012    (48)TiO,"8s2.9s1.3p4.1d1 X,3,2,+,49,7","8s2.3p4.4p1.1d1 B,3,1,-,49,11",0.5,1.0,1.0
TiO 1,4789.3749,-0.6409999999999999,0.8249396072974123,95.0,3.405063192265767,94.0,99.0,99.0,99.0,7.268,0.0,0.0,0.001,_          -14.6411           4 wl:PPN2012   4 gf:PPN2012   4 PPN2012   4 PPN2012   4 PPN2012   4 PPN2012   4 PPN2012   4 PPN2012   4 PPN2012    (50)TiO,"8s2.9s1.3p4.1d1 X,3,2,0,94,2","8s2.11s1.3p4.1d1 C,3,2,0,93,5",0.5,1.0,1.0
TiO 1,4789.377,0.318,1.2219422769251522,135.0,3.809855231091666,136.0,99.0,99.0,99.0,7.205,0.0,0.0,0.002,_          -0.179343          6 wl:PPN2012   6 gf:PPN2012   6 PPN2012   6 PPN2012   6 PPN2012   6 PPN2012   6 PPN2012   6 PPN2012   6 PPN2012    (48)TiO,"8s2.9s1.3p4.1d1 X,3,2,0,136,0","8s2.11s1.3p4.1d1 C,3,2,0,137,3",0.5,1.0,1.0
TiO 1,4789.3827,-0.61,0.706613007132563,70.0,3.2939738472693225,69.0,99.0,99.0,99.0,7.29,0.0,0.0,0.002,_          -1.19569           3 wl:PPN2012   3 gf:PPN2012   3 PPN2012   3 PPN2012   3 PPN2012   3 PPN2012   3 PPN2012   3 PPN2012   3 PPN2012    (46)TiO,"8s2.9s1.3p4.1d1 X,3,2,0,70,3","8s2.11s1.3p4.1d1 C,3,2,0,69,6",0.5,1.0,1.0
Th 1,4789.387,-1.615,0.4572521084752622,2.0,3.0452565877763487,3.0,1.25,1.19,1.13,0.0,0.0,0.0,0.009000000000000001,_          Hf 1 - U 2 Bell   36 wl:MC  36 gf:MC  36 MC  36 MC  36 MC  36 MC  36 MC  36 MC  36 MC    Th,6d2.7s2 a3P,* *,0.5,1.0,1.0
Fe 1,4789.3903,-2.312,4.638193654389586,1.0,7.22619627392771,1.0,2.5,1.28,1.89,8.48,-5.45,-7.34,0.168,_          Kurucz Fe I 2014   5 wl:K14   5 gf:K14   5 K14   5 K14   5 K14   5 K14   5 K14   5 K14   5 K14    Fe,3d6.(5D).4s.4p.(1P*) y5P*,3d6.4s.(4D).4d i5D,0.5,1.0,1.0
TiO 1,4789.3936,-1.091,0.10626308653204297,35.0,2.6943190688687584,34.0,99.0,99.0,99.0,7.322,0.0,0.0,0.006999999999999999,_          0.102148           4 wl:PPN2012   4 gf:PPN2012   4 PPN2012   4 PPN2012   4 PPN2012   4 PPN2012   4 PPN2012   4 PPN2012   4 PPN2012    (50)TiO,"8s2.9s1.3p4.1d1 X,3,2,0,36,0","8s2.11s1.3p4.1d1 C,3,2,0,35,2",0.5,1.0,1.0
MgH 1,4789.3949,-2.687,0.3472403101390309,0.5,2.935240449993206,1.5,99.0,99.0,99.0,7.06,0.0,0.0,0.002,_                            18 wl:KMGH  18 gf:KMGH  18 KMGH  18 KMGH  18 KMGH  18 KMGH  18 KMGH  18 KMGH  18 KMGH    (24)MgH,"4s2.5s1 X,2,0,e,0,2","4s1.5s2/4s2.7s1/4s2.6s1 B,2,0,e,1,2",0.5,1.0,1.0
TiO 1,4789.4029,-0.875,0.20612757180420813,56.0,2.794120892527522,57.0,99.0,99.0,99.0,7.31,0.0,0.0,0.008,_          -0.00454259        4 wl:PPN2012   4 gf:PPN2012   4 PPN2012   4 PPN2012   4 PPN2012   4 PPN2012   4 PPN2012   4 PPN2012   4 PPN2012    (50)TiO,"8s2.9s1.3p4.1d1 X,3,2,0,55,0","8s2.11s1.3p4.1d1 C,3,2,0,56,2",0.5,1.0,1.0
TiO 1,4789.4124,-0.575,0.8882194059074007,88.0,3.473062945289245,89.0,99.0,99.0,99.0,7.27,0.0,0.0,0.001,_          -5.83127           2 wl:PPN2012   2 gf:PPN2012   2 PPN2012   2 PPN2012   2 PPN2012   2 PPN2012   2 PPN2012   2 PPN2012   2 PPN2012    (47)TiO,"8s2.9s1.3p4.1d1 X,3,2,0,88,3","8s2.11s1.3p4.1d1 C,3,2,0,89,6",0.5,1.0,1.0
TiO 1,4789.415,0.11199999999999999,0.10180659853817671,39.0,2.6898262535050335,38.0,99.0,99.0,99.0,7.321000000000001,0.0,0.0,0.109,_          0.0561201          6 wl:PPN2012   6 gf:PPN2012   6 PPN2012   6 PPN2012   6 PPN2012   6 PPN2012   6 PPN2012   6 PPN2012   6 PPN2012    (48)TiO,"8s2.9s1.3p4.1d1 X,3,2,0,38,0","8s2.11s1.3p4.1d1 C,3,2,0,37,2",0.5,1.0,1.0
TiO 1,4789.4154,0.457,1.3559892550335104,82.0,3.94397836029411,83.0,99.0,99.0,99.0,7.349,0.0,0.0,0.002,_                             6 wl:PPN2012   6 gf:PPN2012   6 PPN2012   6 PPN2012   6 PPN2012   6 PPN2012   6 PPN2012   6 PPN2012   6 PPN2012    (48)TiO,"8s2.9s1.3p4.1d1 a,1,2,0,82,4","8s2.11s1.3p4.1d1 f,1,2,0,83,7",0.5,1.0,1.0
Ni 1,4789.4258,-1.8159999999999998,3.698793162618665,3.0,6.286776564606182,4.0,1.3,1.02,0.6,8.17,-5.16,-7.51,0.375,_          Kurucz NiI 2008   33 wl:K08  33 gf:K08  33 K08  33 K08  33 K08  33 K08  33 K08  33 K08  33 K08    Ni,3d8.(3F).4s.4p.(3P*) z5F*,3d9.(2D<3/2>).4d 2[7/2],0.5,1.0,1.0
MgH 1,4789.4258,-1.083,0.2640461697313907,19.5,2.852029571718907,19.5,99.0,99.0,99.0,7.39,0.0,0.0,0.098,_                            18 wl:KMGH  18 gf:KMGH  18 KMGH  18 KMGH  18 KMGH  18 KMGH  18 KMGH  18 KMGH  18 KMGH    (24)MgH,"4s2.5s1 X,2,0,e,19,0","4s2.2p1 A,2,1,f,19,1",0.5,1.0,1.0
Nd 2,4789.428,-1.03,0.32055618319111523,6.5,2.9085384693208542,5.5,1.15,1.03,1.48,0.0,0.0,0.0,0.792,_          La1 to Lu 2 Bell   1 wl:MC   1 gf:MC   1 MC   1 MC   1 MC   1 MC   1 MC   1 MC   1 MC    Nd+,4f4.(5I).6s 6I,* *,0.5,1.0,2.0
TiO 1,4789.4383,0.331,0.6979279636934596,68.0,3.285950457898438,67.0,99.0,99.0,99.0,7.291,0.0,0.0,0.019,_          0.0848368          6 wl:PPN2012   6 gf:PPN2012   6 PPN2012   6 PPN2012   6 PPN2012   6 PPN2012   6 PPN2012   6 PPN2012   6 PPN2012    (48)TiO,"8s2.9s1.3p4.1d1 X,3,2,0,69,3","8s2.11s1.3p4.1d1 C,3,2,0,68,6",0.5,1.0,1.0
TiO 1,4789.4421,-0.703,0.22431609076833503,58.0,2.812286933156648,59.0,99.0,99.0,99.0,7.308,0.0,0.0,0.011000000000000001,_          -0.00705764        2 wl:PPN2012   2 gf:PPN2012   2 PPN2012   2 PPN2012   2 PPN2012   2 PPN2012   2 PPN2012   2 PPN2012   2 PPN2012    (47)TiO,"8s2.9s1.3p4.1d1 X,3,2,0,57,0","8s2.11s1.3p4.1d1 C,3,2,0,58,2",0.5,1.0,1.0
TiO 1,4789.4467,-0.54,0.8742319302950924,85.0,3.461900400022615,86.0,99.0,99.0,99.0,7.273,0.0,0.0,0.001,_          -0.562146          3 wl:PPN2012   3 gf:PPN2012   3 PPN2012   3 PPN2012   3 PPN2012   3 PPN2012   3 PPN2012   3 PPN2012   3 PPN2012    (46)TiO,"8s2.9s1.3p4.1d1 X,3,2,0,86,3","8s2.11s1.3p4.1d1 C,3,2,0,87,6",0.5,1.0,1.0
MgH 1,4789.4499,-2.431,0.3485754959615867,1.5,2.9365458796083685,2.5,99.0,99.0,99.0,7.06,0.0,0.0,0.003,_                            18 wl:KMGH  18 gf:KMGH  18 KMGH  18 KMGH  18 KMGH  18 KMGH  18 KMGH  18 KMGH  18 KMGH    (24)MgH,"4s2.5s1 X,2,0,e,1,2","4s1.5s2/4s2.7s1/4s2.6s1 B,2,0,e,2,2",0.5,1.0,1.0
MgH 1,4789.4499,-2.687,0.3485754959615867,0.5,2.9365458796083685,1.5,99.0,99.0,99.0,7.06,0.0,0.0,0.002,_                            18 wl:KMGH  18 gf:KMGH  18 KMGH  18 KMGH  18 KMGH  18 KMGH  18 KMGH  18 KMGH  18 KMGH    (24)MgH,"4s2.5s1 X,2,0,f,1,2","4s1.5s2/4s2.7s1/4s2.6s1 B,2,0,f,2,2",0.5,1.0,1.0
TiO 1,4789.4692,-0.96,0.6206977855430459,42.0,3.2086578413061786,41.0,99.0,99.0,99.0,7.305,0.0,0.0,0.001,_                             3 wl:PPN2012   3 gf:PPN2012   3 PPN2012   3 PPN2012   3 PPN2012   3 PPN2012   3 PPN2012   3 PPN2012   3 PPN2012    (46)TiO,"8s2.9s1.3p4.1d1 X,3,2,0,42,4","8s2.11s1.3p4.1d1 C,3,2,0,41,7",0.5,1.0,1.0
TiO 1,4789.4841,0.111,0.11426863457691136,39.0,2.702268687642148,38.0,99.0,99.0,99.0,7.321000000000001,0.0,0.0,0.10300000000000001,_          0.0890745          6 wl:PPN2012   6 gf:PPN2012   6 PPN2012   6 PPN2012   6 PPN2012   6 PPN2012   6 PPN2012   6 PPN2012   6 PPN2012    (48)TiO,"8s2.9s1.3p4.1d1 X,3,2,0,39,0","8s2.11s1.3p4.1d1 C,3,2,0,38,2",0.5,1.0,1.0
TiO 1,4789.4944,0.35600000000000004,1.421065832633236,112.0,4.009012163345709,113.0,99.0,99.0,99.0,7.229,0.0,0.0,0.001,_                             6 wl:PPN2012   6 gf:PPN2012   6 PPN2012   6 PPN2012   6 PPN2012   6 PPN2012   6 PPN2012   6 PPN2012   6 PPN2012    (48)TiO,"8s2.9s1.3p4.1d1 X,3,2,0,112,5","8s2.11s1.3p4.1d1 C,3,2,0,113,9",0.5,1.0,1.0
TiO 1,4789.497,0.094,1.1141081866269653,34.0,3.702053203106945,33.0,99.0,99.0,99.0,7.3660000000000005,0.0,0.0,0.002,_                             6 wl:PPN2012   6 gf:PPN2012   6 PPN2012   6 PPN2012   6 PPN2012   6 PPN2012   6 PPN2012   6 PPN2012   6 PPN2012    (48)TiO,"8s2.9s1.3p4.1d1 a,1,2,0,34,5","8s2.11s1.3p4.1d1 f,1,2,0,33,8",0.5,1.0,1.0
TiO 1,4789.5084,0.242,1.449808717180143,123.0,4.03774748485657,123.0,99.0,99.0,99.0,7.4110000000000005,0.0,0.0,0.001,_                             6 wl:PPN2012   6 gf:PPN2012   6 PPN2012   6 PPN2012   6 PPN2012   6 PPN2012   6 PPN2012   6 PPN2012   6 PPN2012    (48)TiO,"8s2.9s1.3p4.1d1 X,3,2,+,122,4","8s2.3p4.4p1.1d1 B,3,1,-,122,7",0.5,1.0,1.0
TiO 1,4789.5195,-0.46799999999999997,0.8846619149309706,105.0,3.472416739652031,104.0,99.0,99.0,99.0,7.256,0.0,0.0,0.002,_          -0.329368          3 wl:PPN2012   3 gf:PPN2012   3 PPN2012   3 PPN2012   3 PPN2012   3 PPN2012   3 PPN2012   3 PPN2012   3 PPN2012    (46)TiO,"8s2.9s1.3p4.1d1 X,3,2,0,106,1","8s2.11s1.3p4.1d1 C,3,2,0,105,4",0.5,1.0,1.0
TiO 1,4789.5263,-0.652,0.7789221780948687,88.0,3.366753563057867,87.0,99.0,99.0,99.0,7.275,0.0,0.0,0.002,_          -0.180915          8 wl:PPN2012   8 gf:PPN2012   8 PPN2012   8 PPN2012   8 PPN2012   8 PPN2012   8 PPN2012   8 PPN2012   8 PPN2012    (49)TiO,"8s2.9s1.3p4.1d1 X,3,2,0,89,2","8s2.11s1.3p4.1d1 C,3,2,0,88,5",0.5,1.0,1.0
TiO 1,4789.5285,0.242,1.449808717180143,123.0,4.037736574247193,123.0,99.0,99.0,99.0,7.4110000000000005,0.0,0.0,0.001,_                             6 wl:PPN2012   6 gf:PPN2012   6 PPN2012   6 PPN2012   6 PPN2012   6 PPN2012   6 PPN2012   6 PPN2012   6 PPN2012    (48)TiO,"8s2.9s1.3p4.1d1 X,3,2,-,122,4","8s2.3p4.4p1.1d1 B,3,1,+,122,7",0.5,1.0,1.0
TiO 1,4789.5312,-0.853,0.12297593317946068,38.0,2.7109553924694976,37.0,99.0,99.0,99.0,7.321000000000001,0.0,0.0,0.011000000000000001,_          0.0980772          3 wl:PPN2012   3 gf:PPN2012   3 PPN2012   3 PPN2012   3 PPN2012   3 PPN2012   3 PPN2012   3 PPN2012   3 PPN2012    (46)TiO,"8s2.9s1.3p4.1d1 X,3,2,0,39,0","8s2.11s1.3p4.1d1 C,3,2,0,38,2",0.5,1.0,1.0
TiO 1,4789.5425,-0.501,0.8859004550715984,108.0,3.471168466751902,107.0,99.0,99.0,99.0,7.252999999999999,0.0,0.0,0.001,_          -4.91403           2 wl:PPN2012   2 gf:PPN2012   2 PPN2012   2 PPN2012   2 PPN2012   2 PPN2012   2 PPN2012   2 PPN2012   2 PPN2012    (47)TiO,"8s2.9s1.3p4.1d1 X,3,2,0,107,1","8s2.11s1.3p4.1d1 C,3,2,0,106,4",0.5,1.0,1.0
CN 1,4789.5429,-2.884,1.0688235040314702,36.5,3.656743674078277,36.5,99.0,99.0,99.0,6.17,0.0,0.0,0.001,_                            48 wl:KCN  48 gf:KCN  48 KCN  48 KCN  48 KCN  48 KCN  48 KCN  48 KCN  48 KCN    (12)C(14)N,"3s2.4s2.1p4.5s1 X,2,0,,37,3","3s2.4s2.1p3.5s2 A,2,1,e,37,11",0.5,1.0,1.0
TiO 1,4789.5534,-0.018000000000000002,0.611456077854141,41.0,3.199370557026284,40.0,99.0,99.0,99.0,7.305,0.0,0.0,0.012,_                             6 wl:PPN2012   6 gf:PPN2012   6 PPN2012   6 PPN2012   6 PPN2012   6 PPN2012   6 PPN2012   6 PPN2012   6 PPN2012    (48)TiO,"8s2.9s1.3p4.1d1 X,3,2,0,41,4","8s2.11s1.3p4.1d1 C,3,2,0,40,7",0.5,1.0,1.0
TiO 1,4789.5589,0.368,1.2162739921820527,80.0,3.8041855577255546,79.0,99.0,99.0,99.0,7.358,0.0,0.0,0.003,_                             6 wl:PPN2012   6 gf:PPN2012   6 PPN2012   6 PPN2012   6 PPN2012   6 PPN2012   6 PPN2012   6 PPN2012   6 PPN2012    (48)TiO,"8s2.9s1.3p4.1d1 a,1,2,0,80,3","8s2.11s1.3p4.1d1 f,1,2,0,79,6",0.5,1.0,1.0
TiO 1,4789.5652,0.248,0.9566281703999135,120.0,3.5444762312374714,119.0,99.0,99.0,99.0,7.236000000000001,0.0,0.0,0.006,_          -0.111206          6 wl:PPN2012   6 gf:PPN2012   6 PPN2012   6 PPN2012   6 PPN2012   6 PPN2012   6 PPN2012   6 PPN2012   6 PPN2012    (48)TiO,"8s2.9s1.3p4.1d1 X,3,2,0,120,0","8s2.11s1.3p4.1d1 C,3,2,0,119,3",0.5,1.0,1.0
Ce 2,4789.5672,-1.4,1.2508319339650245,1.5,3.838738961686899,1.5,1.38,1.04,1.21,0.0,0.0,0.0,0.053,C 0.042    Ce 2: DREAM data  15 wl:PQWB  15 gf:PQWB  15 PQWB  15 PQWB  15 PQWB  15 PQWB  15 PQWB  15 PQWB  15 PQWB    Ce+,4f.(2F*).5d2.(3F) *,4f.5d.(1D*).6p 4f.5d.(1D*).6p,0.042,1.0,2.0
Cr 1,4789.5679,-0.813,4.1440211596390775,1.0,6.73192781540836,1.0,1.5,0.06,0.78,7.89,-4.7,-7.48,0.29600000000000004,_          Kurucz Cr I 2016  10 wl:K16  10 gf:K16  10 K16  10 K16  10 K16  10 K16  10 K16  10 K16  10 K16    Cr,3d4.(5D).4s.4p.(3P*) z5D*,3d4.4s.5d e5F,0.5,1.0,1.0
TiO 1,4789.5683,-0.7190000000000001,0.23669508219160418,56.0,2.8246471657708394,57.0,99.0,99.0,99.0,7.309,0.0,0.0,0.01,_          0.0843229          2 wl:PPN2012   2 gf:PPN2012   2 PPN2012   2 PPN2012   2 PPN2012   2 PPN2012   2 PPN2012   2 PPN2012   2 PPN2012    (47)TiO,"8s2.9s1.3p4.1d1 X,3,2,0,57,0","8s2.11s1.3p4.1d1 C,3,2,0,58,2",0.5,1.0,1.0
Fe 1,4789.5757,-3.175,4.47327198264618,3.0,7.061174422952749,2.0,0.79,1.23,0.36,8.06,-4.35,-7.34,0.05,_          Kurucz Fe I 2014   5 wl:K14   5 gf:K14   5 K14   5 K14   5 K14   5 K14   5 K14   5 K14   5 K14    Fe,3d7.(4F).4p z3G*,3d6.4s.(6D).5d 5F,0.5,1.0,1.0
TiO 1,4789.5807,-0.88,0.7231615251246537,58.0,3.311061225380458,59.0,99.0,99.0,99.0,7.294,0.0,0.0,0.001,_                             2 wl:PPN2012   2 gf:PPN2012   2 PPN2012   2 PPN2012   2 PPN2012   2 PPN2012   2 PPN2012   2 PPN2012   2 PPN2012    (47)TiO,"8s2.9s1.3p4.1d1 X,3,2,0,58,4","8s2.11s1.3p4.1d1 C,3,2,0,59,7",0.5,1.0,1.0
TiO 1,4789.5921,-0.8859999999999999,0.7295066024064837,57.0,3.317400165444513,58.0,99.0,99.0,99.0,7.295,0.0,0.0,0.001,_                             2 wl:PPN2012   2 gf:PPN2012   2 PPN2012   2 PPN2012   2 PPN2012   2 PPN2012   2 PPN2012   2 PPN2012   2 PPN2012    (47)TiO,"8s2.9s1.3p4.1d1 X,3,2,0,58,4","8s2.11s1.3p4.1d1 C,3,2,0,59,7",0.5,1.0,1.0
TiO 1,4789.5936,0.11599999999999999,0.7071453456828207,58.0,3.295038127620406,59.0,99.0,99.0,99.0,7.294,0.0,0.0,0.011000000000000001,_                             6 wl:PPN2012   6 gf:PPN2012   6 PPN2012   6 PPN2012   6 PPN2012   6 PPN2012   6 PPN2012   6 PPN2012   6 PPN2012    (48)TiO,"8s2.9s1.3p4.1d1 X,3,2,0,57,4","8s2.11s1.3p4.1d1 C,3,2,0,58,7",0.5,1.0,1.0
TiO 1,4789.5985,-0.5379999999999999,0.8143752361898962,71.0,3.402265364865656,71.0,99.0,99.0,99.0,7.362,0.0,0.0,0.002,_                             6 wl:PPN2012   6 gf:PPN2012   6 PPN2012   6 PPN2012   6 PPN2012   6 PPN2012   6 PPN2012   6 PPN2012   6 PPN2012    (48)TiO,"8s2.9s1.3p4.1d1 X,3,2,+,70,4","8s2.3p4.4p1.1d1 B,3,1,-,70,8",0.5,1.0,1.0
TiO 1,4789.5999,-0.816,0.68733190222507,69.0,3.2746168144392986,68.0,99.0,99.0,99.0,7.291,0.0,0.0,0.001,_          -1.11904           4 wl:PPN2012   4 gf:PPN2012   4 PPN2012   4 PPN2012   4 PPN2012   4 PPN2012   4 PPN2012   4 PPN2012   4 PPN2012    (50)TiO,"8s2.9s1.3p4.1d1 X,3,2,0,69,3","8s2.11s1.3p4.1d1 C,3,2,0,68,6",0.5,1.0,1.0
TiO 1,4789.6258,-0.7979999999999999,0.6752975744723482,69.0,3.263491340447712,68.0,99.0,99.0,99.0,7.291,0.0,0.0,0.002,_          0.589249           8 wl:PPN2012   8 gf:PPN2012   8 PPN2012   8 PPN2012   8 PPN2012   8 PPN2012   8 PPN2012   8 PPN2012   8 PPN2012    (49)TiO,"8s2.9s1.3p4.1d1 X,3,2,0,68,3","8s2.11s1.3p4.1d1 C,3,2,0,67,6",0.5,1.0,1.0