species,wlcent,gflog,excit,j_lo,e_upp,j_up,lande_lower,lande_upper,lande,gamrad,gamqst,gamvw,depth,reference,term_lower,term_upper,error,atom_number,ionization
Mo 1,4793.818,-0.8909999999999999,3.395163178081974,3.0,5.980775506277072,2.0,0.91,0.76,1.07,0.0,0.0,0.0,0.002,_          Cu 1 - Ba 2 Bell  17 wl:WBb  17 gf:WBb  17 WBb  17 WBb  17 WBb  17 WBb  17 WBb  17 WBb  17 WBb    Mo,4d4.5s2 b3G,4d5.(2F).5p v3F*,0.5,1.0,1.0
MgH 1,4793.8269,-1.423,0.19815662774885365,4.5,2.78376412056025,4.5,99.0,99.0,99.0,7.39,0.0,0.0,0.059000000000000004,_                            18 wl:KMGH  18 gf:KMGH  18 KMGH  18 KMGH  18 KMGH  18 KMGH  18 KMGH  18 KMGH  18 KMGH    (24)MgH,"4s2.5s1 X,2,0,f,5,1","4s2.2p1 A,2,1,e,5,2",0.5,1.0,1.0
TiO 1,4793.8312,-0.8140000000000001,0.7431084623678205,62.0,3.3287135994794648,63.0,99.0,99.0,99.0,7.291,0.0,0.0,0.001,_                             3 wl:PPN2012   3 gf:PPN2012   3 PPN2012   3 PPN2012   3 PPN2012   3 PPN2012   3 PPN2012   3 PPN2012   3 PPN2012    (46)TiO,"8s2.9s1.3p4.1d1 X,3,2,0,61,4","8s2.11s1.3p4.1d1 C,3,2,0,62,7",0.5,1.0,1.0
TiO 1,4793.8507,-0.978,0.6230610855262833,45.0,3.2086557335748216,44.0,99.0,99.0,99.0,7.303,0.0,0.0,0.001,_                             2 wl:PPN2012   2 gf:PPN2012   2 PPN2012   2 PPN2012   2 PPN2012   2 PPN2012   2 PPN2012   2 PPN2012   2 PPN2012    (47)TiO,"8s2.9s1.3p4.1d1 X,3,2,0,44,4","8s2.11s1.3p4.1d1 C,3,2,0,43,7",0.5,1.0,1.0
TiO 1,4793.8511,-0.991,0.1298877422279266,42.0,2.715529169514171,41.0,99.0,99.0,99.0,7.32,0.0,0.0,0.008,_          0.0869721          8 wl:PPN2012   8 gf:PPN2012   8 PPN2012   8 PPN2012   8 PPN2012   8 PPN2012   8 PPN2012   8 PPN2012   8 PPN2012    (49)TiO,"8s2.9s1.3p4.1d1 X,3,2,0,42,0","8s2.11s1.3p4.1d1 C,3,2,0,41,2",0.5,1.0,1.0
TiO 1,4793.8663,0.3,0.25863216417888246,59.0,2.8442635735419706,60.0,99.0,99.0,99.0,7.307,0.0,0.0,0.092,_          0.0838395          6 wl:PPN2012   6 gf:PPN2012   6 PPN2012   6 PPN2012   6 PPN2012   6 PPN2012   6 PPN2012   6 PPN2012   6 PPN2012    (48)TiO,"8s2.9s1.3p4.1d1 X,3,2,0,60,0","8s2.11s1.3p4.1d1 C,3,2,0,61,2",0.5,1.0,1.0
TiO 1,4793.8715,-0.8640000000000001,0.13849718010341275,41.0,2.7241313171188453,40.0,99.0,99.0,99.0,7.32,0.0,0.0,0.01,_          0.0939760          2 wl:PPN2012   2 gf:PPN2012   2 PPN2012   2 PPN2012   2 PPN2012   2 PPN2012   2 PPN2012   2 PPN2012   2 PPN2012    (47)TiO,"8s2.9s1.3p4.1d1 X,3,2,0,42,0","8s2.11s1.3p4.1d1 C,3,2,0,41,2",0.5,1.0,1.0
TiO 1,4793.8784,0.315,0.2465636663813377,61.0,2.832137795045195,62.0,99.0,99.0,99.0,7.306,0.0,0.0,0.1,_          -0.0102623         6 wl:PPN2012   6 gf:PPN2012   6 PPN2012   6 PPN2012   6 PPN2012   6 PPN2012   6 PPN2012   6 PPN2012   6 PPN2012    (48)TiO,"8s2.9s1.3p4.1d1 X,3,2,0,60,0","8s2.11s1.3p4.1d1 C,3,2,0,61,2",0.5,1.0,1.0
TiO 1,4793.8979,-0.423,0.9278013113560598,56.0,3.5133705798393757,56.0,99.0,99.0,99.0,7.479,0.0,0.0,0.001,_                             6 wl:PPN2012   6 gf:PPN2012   6 PPN2012   6 PPN2012   6 PPN2012   6 PPN2012   6 PPN2012   6 PPN2012   6 PPN2012    (48)TiO,"8s2.9s1.3p4.1d1 X,3,2,+,55,6","8s2.3p4.4p1.1d1 B,3,1,-,55,10",0.5,1.0,1.0
TiO 1,4793.9046,0.473,1.3882245264547561,85.0,3.9737901126074076,86.0,99.0,99.0,99.0,7.347,0.0,0.0,0.002,_                             6 wl:PPN2012   6 gf:PPN2012   6 PPN2012   6 PPN2012   6 PPN2012   6 PPN2012   6 PPN2012   6 PPN2012   6 PPN2012    (48)TiO,"8s2.9s1.3p4.1d1 a,1,2,0,85,4","8s2.11s1.3p4.1d1 f,1,2,0,86,7",0.5,1.0,1.0
TiO 1,4793.9224,0.507,1.547368162643462,128.0,4.132924202012908,129.0,99.0,99.0,99.0,7.207000000000001,0.0,0.0,0.001,_                             6 wl:PPN2012   6 gf:PPN2012   6 PPN2012   6 PPN2012   6 PPN2012   6 PPN2012   6 PPN2012   6 PPN2012   6 PPN2012    (48)TiO,"8s2.9s1.3p4.1d1 X,3,2,0,128,4","8s2.11s1.3p4.1d1 C,3,2,0,129,8",0.5,1.0,1.0
TiO 1,4793.9282,-0.787,0.13059430337246936,44.0,2.716167812115339,43.0,99.0,99.0,99.0,7.318,0.0,0.0,0.013000000000000001,_          0.0382917          3 wl:PPN2012   3 gf:PPN2012   3 PPN2012   3 PPN2012   3 PPN2012   3 PPN2012   3 PPN2012   3 PPN2012   3 PPN2012    (46)TiO,"8s2.9s1.3p4.1d1 X,3,2,0,43,0","8s2.11s1.3p4.1d1 C,3,2,0,42,2",0.5,1.0,1.0
TiO 1,4793.9322,0.5539999999999999,1.0082896826302108,106.0,3.5934705706149517,107.0,99.0,99.0,99.0,7.25,0.0,0.0,0.01,_          -0.685807          6 wl:PPN2012   6 gf:PPN2012   6 PPN2012   6 PPN2012   6 PPN2012   6 PPN2012   6 PPN2012   6 PPN2012   6 PPN2012    (48)TiO,"8s2.9s1.3p4.1d1 X,3,2,0,107,2","8s2.11s1.3p4.1d1 C,3,2,0,108,5",0.5,1.0,1.0
Cu 1,4793.9416,-0.382,5.505675500623393,2.5,8.091221125320251,1.5,1.43,0.91,1.82,8.05,-5.47,-7.58,0.009000000000000001,_      A   Kurucz CuI 2012   50 wl:K12  50 gf:K12  50 K12  50 K12  50 K12  50 K12  50 K12  50 K12  50 K12    Cu,3d9.(2D).4s.4p.(3P*) 4D*,3d9.4s.(3D).5s 2D,0.5,1.0,1.0
Ce 2,4793.9448,-2.53,1.1030538051742076,5.5,3.6885976940923015,5.5,0.96,1.02,0.99,0.0,0.0,0.0,0.006999999999999999,C-0.012    Ce 2: DREAM data  15 wl:PQWB  15 gf:PQWB  15 PQWB  15 PQWB  15 PQWB  15 PQWB  15 PQWB  15 PQWB  15 PQWB    Ce+,4f2.(3H).5d 4I,"4f2.(3H<5>).6p.<3/2> (5,3/2)*",0.012,1.0,2.0
TiO 1,4793.9478,-0.645,0.7223381956629337,72.0,3.3071458044243514,71.0,99.0,99.0,99.0,7.287999999999999,0.0,0.0,0.002,_          -1.36268           2 wl:PPN2012   2 gf:PPN2012   2 PPN2012   2 PPN2012   2 PPN2012   2 PPN2012   2 PPN2012   2 PPN2012   2 PPN2012    (47)TiO,"8s2.9s1.3p4.1d1 X,3,2,0,72,3","8s2.11s1.3p4.1d1 C,3,2,0,71,6",0.5,1.0,1.0
TiO 1,4793.9542,0.5710000000000001,1.1655310664723917,127.0,3.7450407560853924,128.0,99.0,99.0,99.0,7.218999999999999,0.0,0.0,0.005,_          -11.2053           6 wl:PPN2012   6 gf:PPN2012   6 PPN2012   6 PPN2012   6 PPN2012   6 PPN2012   6 PPN2012   6 PPN2012   6 PPN2012    (48)TiO,"8s2.9s1.3p4.1d1 X,3,2,0,126,1","8s2.11s1.3p4.1d1 C,3,2,0,127,4",0.5,1.0,1.0
TiO 1,4793.9583,-0.501,0.8040882177321208,91.0,3.38943337238009,90.0,99.0,99.0,99.0,7.272,0.0,0.0,0.002,_          -0.355084          2 wl:PPN2012   2 gf:PPN2012   2 PPN2012   2 PPN2012   2 PPN2012   2 PPN2012   2 PPN2012   2 PPN2012   2 PPN2012    (47)TiO,"8s2.9s1.3p4.1d1 X,3,2,0,91,2","8s2.11s1.3p4.1d1 C,3,2,0,90,5",0.5,1.0,1.0
Fe 1,4793.9611,-3.53,3.0468688782802498,4.0,5.632403964320324,4.0,1.0,1.05,1.03,7.31,-6.22,-7.76,0.605,N D        Kurucz Fe I 2014   5 wl:K14  35 gf:FMW   5 K14   5 K14   5 K14   5 K14   5 K14  25 BPM   5 K14    Fe,3d7.(2G).4s a1G,3d6.(3H).4s.4p.(3P*) y3G*,0.5,1.0,1.0
CH 1,4793.967,-2.944,0.5210892160528788,10.5,3.106621078503818,11.5,99.0,99.0,99.0,6.27,0.0,0.0,0.009000000000000001,_                            37 wl:JLIY  37 gf:JLIY  37 JLIY  37 JLIY  37 JLIY  37 JLIY  37 JLIY  37 JLIY  37 JLIY    (12)CH,"1s2.2s2.3s2.1p1 X,2,1,f,10,1","1s2.2s2.3s1.1p2 A,2,2,f,11,0",0.5,1.0,1.0
Os 1,4793.993,-1.99,0.5156899522214496,3.0,3.10120805242647,3.0,1.47,1.73,1.6,0.0,0.0,0.0,0.495,_          Hf 1 - U 2 Bell   36 wl:CBcor  36 gf:CBcor  36 CBcor  36 CBcor  36 CBcor  36 CBcor  36 CBcor  36 CBcor  36 CBcor    Os,5d6.6s2 a5D,5d6.6s.(a6D).6p z7D*,0.5,1.0,1.0
TiO 1,4794.0062,-0.629,0.2714047434370205,62.0,2.856951992326866,63.0,99.0,99.0,99.0,7.305,0.0,0.0,0.011000000000000001,_          0.0673638          3 wl:PPN2012   3 gf:PPN2012   3 PPN2012   3 PPN2012   3 PPN2012   3 PPN2012   3 PPN2012   3 PPN2012   3 PPN2012    (46)TiO,"8s2.9s1.3p4.1d1 X,3,2,0,62,0","8s2.11s1.3p4.1d1 C,3,2,0,63,2",0.5,1.0,1.0
TiO 1,4794.0097,0.557,1.1215829707208838,123.0,3.7066413623185244,124.0,99.0,99.0,99.0,7.226,0.0,0.0,0.006999999999999999,_          -0.835471          6 wl:PPN2012   6 gf:PPN2012   6 PPN2012   6 PPN2012   6 PPN2012   6 PPN2012   6 PPN2012   6 PPN2012   6 PPN2012    (48)TiO,"8s2.9s1.3p4.1d1 X,3,2,0,123,1","8s2.11s1.3p4.1d1 C,3,2,0,124,4",0.5,1.0,1.0
Ce 2,4794.0202,-2.1,1.0136778126807071,2.5,3.5991810347820308,1.5,1.27,0.98,1.49,0.0,0.0,0.0,0.025,C-0.009    Ce 2: DREAM data  15 wl:PQWB  15 gf:PQWB  15 PQWB  15 PQWB  15 PQWB  15 PQWB  15 PQWB  15 PQWB  15 PQWB    Ce+,4f.5d.(3D*).6s 4D*,4f.5d.(3F*).6p 4f.5d.(3F*).6p,0.009,1.0,2.0
TiO 1,4794.0338,-0.8059999999999999,0.6907338054320948,71.0,3.27654179308922,70.0,99.0,99.0,99.0,7.289,0.0,0.0,0.002,_          0.578517           4 wl:PPN2012   4 gf:PPN2012   4 PPN2012   4 PPN2012   4 PPN2012   4 PPN2012   4 PPN2012   4 PPN2012   4 PPN2012    (50)TiO,"8s2.9s1.3p4.1d1 X,3,2,0,70,3","8s2.11s1.3p4.1d1 C,3,2,0,69,6",0.5,1.0,1.0
TiO 1,4794.0407,-0.643,0.8816877324083782,107.0,3.4670875268921724,106.0,99.0,99.0,99.0,7.254,0.0,0.0,0.001,_          -0.171437          8 wl:PPN2012   8 gf:PPN2012   8 PPN2012   8 PPN2012   8 PPN2012   8 PPN2012   8 PPN2012   8 PPN2012   8 PPN2012    (49)TiO,"8s2.9s1.3p4.1d1 X,3,2,0,107,1","8s2.11s1.3p4.1d1 C,3,2,0,106,4",0.5,1.0,1.0
TiO 1,4794.0587,-0.365,1.036429123689611,51.0,3.6219116776252163,51.0,99.0,99.0,99.0,7.51,0.0,0.0,0.001,_                             6 wl:PPN2012   6 gf:PPN2012   6 PPN2012   6 PPN2012   6 PPN2012   6 PPN2012   6 PPN2012   6 PPN2012   6 PPN2012    (48)TiO,"8s2.9s1.3p4.1d1 X,3,2,-,52,7","8s2.3p4.4p1.1d1 B,3,1,+,52,11",0.5,1.0,1.0
MgH 1,4794.0605,-1.209,0.1681652223334223,14.5,2.7536467472001886,14.5,99.0,99.0,99.0,7.39,0.0,0.0,0.102,_                            18 wl:KMGH  18 gf:KMGH  18 KMGH  18 KMGH  18 KMGH  18 KMGH  18 KMGH  18 KMGH  18 KMGH    (24)MgH,"4s2.5s1 X,2,0,f,15,0","4s2.2p1 A,2,1,e,15,1",0.5,1.0,1.0
TiO 1,4794.0686,0.557,1.0041744115462021,107.0,3.589080166198337,108.0,99.0,99.0,99.0,7.249,0.0,0.0,0.01,_          -1.05980           6 wl:PPN2012   6 gf:PPN2012   6 PPN2012   6 PPN2012   6 PPN2012   6 PPN2012   6 PPN2012   6 PPN2012   6 PPN2012    (48)TiO,"8s2.9s1.3p4.1d1 X,3,2,0,107,2","8s2.11s1.3p4.1d1 C,3,2,0,108,5",0.5,1.0,1.0
TiO 1,4794.0725,0.415,0.8464149101412131,86.0,3.4340511935710727,87.0,99.0,99.0,99.0,7.273,0.0,0.0,0.013000000000000001,_          4.00417            6 wl:PPN2012   6 gf:PPN2012   6 PPN2012   6 PPN2012   6 PPN2012   6 PPN2012   6 PPN2012   6 PPN2012   6 PPN2012    (48)TiO,"8s2.9s1.3p4.1d1 X,3,2,0,85,3","8s2.11s1.3p4.1d1 C,3,2,0,86,6",0.5,1.0,1.0
TiO 1,4794.0768,-0.7929999999999999,0.713391607559267,70.0,3.2988892007780257,69.0,99.0,99.0,99.0,7.29,0.0,0.0,0.001,_          0.0459728          8 wl:PPN2012   8 gf:PPN2012   8 PPN2012   8 PPN2012   8 PPN2012   8 PPN2012   8 PPN2012   8 PPN2012   8 PPN2012    (49)TiO,"8s2.9s1.3p4.1d1 X,3,2,0,71,3","8s2.11s1.3p4.1d1 C,3,2,0,70,6",0.5,1.0,1.0
TiO 1,4794.0819,-0.845,0.23627716865719162,60.0,2.821742216024114,61.0,99.0,99.0,99.0,7.307,0.0,0.0,0.006999999999999999,_          -0.00926095        4 wl:PPN2012   4 gf:PPN2012   4 PPN2012   4 PPN2012   4 PPN2012   4 PPN2012   4 PPN2012   4 PPN2012   4 PPN2012    (50)TiO,"8s2.9s1.3p4.1d1 X,3,2,0,59,0","8s2.11s1.3p4.1d1 C,3,2,0,60,2",0.5,1.0,1.0
TiO 1,4794.0832,-0.252,1.0865717675088005,60.0,3.6720410923305358,59.0,99.0,99.0,99.0,7.269,0.0,0.0,0.001,_                             6 wl:PPN2012   6 gf:PPN2012   6 PPN2012   6 PPN2012   6 PPN2012   6 PPN2012   6 PPN2012   6 PPN2012   6 PPN2012    (48)TiO,"8s2.9s1.3p4.1d1 X,3,2,0,60,7","8s2.11s1.3p4.1d1 C,3,2,0,59,11",0.5,1.0,1.0
MgH 1,4794.0924,-1.5330000000000001,0.19129249062431497,3.5,2.776756781687633,3.5,99.0,99.0,99.0,7.39,0.0,0.0,0.047,_                            18 wl:KMGH  18 gf:KMGH  18 KMGH  18 KMGH  18 KMGH  18 KMGH  18 KMGH  18 KMGH  18 KMGH    (24)MgH,"4s2.5s1 X,2,0,f,4,1","4s2.2p1 A,2,1,e,4,2",0.5,1.0,1.0
Ce 2,4794.1228,-2.83,0.7395528435527721,3.5,3.325000768702024,2.5,1.33,1.35,1.31,0.0,0.0,0.0,0.012,C-0.010    Ce 2: DREAM data  15 wl:PQWB  15 gf:PQWB  15 PQWB  15 PQWB  15 PQWB  15 PQWB  15 PQWB  15 PQWB  15 PQWB    Ce+,4f.(2F*).5d2.(3F) 4F*,4f2.(3P).5d 4D,0.01,1.0,2.0
TiO 1,4794.1259,-0.86,0.2485337132870393,58.0,2.834025206483283,59.0,99.0,99.0,99.0,7.308,0.0,0.0,0.006999999999999999,_          0.0839021          4 wl:PPN2012   4 gf:PPN2012   4 PPN2012   4 PPN2012   4 PPN2012   4 PPN2012   4 PPN2012   4 PPN2012   4 PPN2012    (50)TiO,"8s2.9s1.3p4.1d1 X,3,2,0,59,0","8s2.11s1.3p4.1d1 C,3,2,0,60,2",0.5,1.0,1.0
MgH 1,4794.126,-1.906,0.9239872722782245,14.5,3.509433461648712,13.5,99.0,99.0,99.0,7.06,0.0,0.0,0.002,_                            18 wl:KMGH  18 gf:KMGH  18 KMGH  18 KMGH  18 KMGH  18 KMGH  18 KMGH  18 KMGH  18 KMGH    (24)MgH,"4s2.5s1 X,2,0,e,14,5","4s1.5s2/4s2.7s1/4s2.6s1 B,2,0,e,13,8",0.5,1.0,1.0
MgH 1,4794.126,-1.9369999999999998,0.9239872722782245,13.5,3.509433461648712,12.5,99.0,99.0,99.0,7.06,0.0,0.0,0.001,_                            18 wl:KMGH  18 gf:KMGH  18 KMGH  18 KMGH  18 KMGH  18 KMGH  18 KMGH  18 KMGH  18 KMGH    (24)MgH,"4s2.5s1 X,2,0,f,14,5","4s1.5s2/4s2.7s1/4s2.6s1 B,2,0,f,13,8",0.5,1.0,1.0
TiO 1,4794.1272,-0.787,0.14337786763050328,44.0,2.728869621193561,43.0,99.0,99.0,99.0,7.318,0.0,0.0,0.012,_          0.0854761          3 wl:PPN2012   3 gf:PPN2012   3 PPN2012   3 PPN2012   3 PPN2012   3 PPN2012   3 PPN2012   3 PPN2012   3 PPN2012    (46)TiO,"8s2.9s1.3p4.1d1 X,3,2,0,44,0","8s2.11s1.3p4.1d1 C,3,2,0,43,2",0.5,1.0,1.0
TiO 1,4794.1523,-0.988,0.6430580875883883,44.0,3.228490105565105,43.0,99.0,99.0,99.0,7.303999999999999,0.0,0.0,0.001,_                             2 wl:PPN2012   2 gf:PPN2012   2 PPN2012   2 PPN2012   2 PPN2012   2 PPN2012   2 PPN2012   2 PPN2012   2 PPN2012    (47)TiO,"8s2.9s1.3p4.1d1 X,3,2,0,45,4","8s2.11s1.3p4.1d1 C,3,2,0,44,7",0.5,1.0,1.0
Co 1,4794.1722,-4.635,4.071879265800298,4.5,6.6573005280238995,3.5,1.31,1.28,1.37,8.42,-5.07,-7.53,0.016,"_          Kurucz CoI 2008   12 wl:K08  12 gf:K08  12 K08  12 K08  12 K08  12 K08  12 K08  12 K08  12 K08   hfs:P,P Co",3p6.3d8.(3F).4p y4F*,3p6.3d7.4s.(3F).5s h4F,0.5,1.0,1.0
MgH 1,4794.1867,-1.264,0.20640294070678927,6.5,2.7918163982491446,6.5,99.0,99.0,99.0,7.39,0.0,0.0,0.081,_                            18 wl:KMGH  18 gf:KMGH  18 KMGH  18 KMGH  18 KMGH  18 KMGH  18 KMGH  18 KMGH  18 KMGH    (24)MgH,"4s2.5s1 X,2,0,e,6,1","4s2.2p1 A,2,1,f,6,2",0.5,1.0,1.0
Co 1,4794.1881,-4.237,4.071871943293596,4.5,6.657284634737594,3.5,1.31,1.28,1.37,8.42,-5.07,-7.53,0.016,"_          Kurucz CoI 2008   12 wl:K08  12 gf:K08  12 K08  12 K08  12 K08  12 K08  12 K08  12 K08  12 K08   hfs:P,P Co",3p6.3d8.(3F).4p y4F*,3p6.3d7.4s.(3F).5s h4F,0.5,1.0,1.0
Co 1,4794.1884,-3.3339999999999996,4.071887987964606,4.5,6.6573005280238995,3.5,1.31,1.28,1.37,8.42,-5.07,-7.53,0.016,"_          Kurucz CoI 2008   12 wl:K08  12 gf:K08  12 K08  12 K08  12 K08  12 K08  12 K08  12 K08  12 K08   hfs:P,P Co",3p6.3d8.(3F).4p y4F*,3p6.3d7.4s.(3F).5s h4F,0.5,1.0,1.0
TiO 1,4794.1897,0.568,1.5115212315499116,134.0,4.085336587339924,133.0,99.0,99.0,99.0,7.202999999999999,0.0,0.0,0.002,_          -21.6007           6 wl:PPN2012   6 gf:PPN2012   6 PPN2012   6 PPN2012   6 PPN2012   6 PPN2012   6 PPN2012   6 PPN2012   6 PPN2012    (48)TiO,"8s2.9s1.3p4.1d1 X,3,2,0,133,3","8s2.11s1.3p4.1d1 C,3,2,0,132,7",0.5,1.0,1.0
TiO 1,4794.2012,-1.014,0.13186645562903135,40.0,2.717323468819958,39.0,99.0,99.0,99.0,7.32,0.0,0.0,0.008,_          0.0953387          8 wl:PPN2012   8 gf:PPN2012   8 PPN2012   8 PPN2012   8 PPN2012   8 PPN2012   8 PPN2012   8 PPN2012   8 PPN2012    (49)TiO,"8s2.9s1.3p4.1d1 X,3,2,0,41,0","8s2.11s1.3p4.1d1 C,3,2,0,40,2",0.5,1.0,1.0
Co 1,4794.2017,-3.123,4.071879265800298,4.5,6.657284634737594,3.5,1.31,1.28,1.37,8.42,-5.07,-7.53,0.016,"_          Kurucz CoI 2008   12 wl:K08  12 gf:K08  12 K08  12 K08  12 K08  12 K08  12 K08  12 K08  12 K08   hfs:P,P Co",3p6.3d8.(3F).4p y4F*,3p6.3d7.4s.(3F).5s h4F,0.5,1.0,1.0
Co 1,4794.2022,-4.033,4.071865949525537,4.5,6.657271011725929,3.5,1.31,1.28,1.37,8.42,-5.07,-7.53,0.016,"_          Kurucz CoI 2008   12 wl:K08  12 gf:K08  12 K08  12 K08  12 K08  12 K08  12 K08  12 K08  12 K08   hfs:P,P Co",3p6.3d8.(3F).4p y4F*,3p6.3d7.4s.(3F).5s h4F,0.5,1.0,1.0
Co 1,4794.2073,-2.326,4.071898192359995,4.5,6.6573005280238995,3.5,1.31,1.28,1.37,8.42,-5.07,-7.53,0.016,"_          Kurucz CoI 2008   12 wl:K08  12 gf:K08  12 K08  12 K08  12 K08  12 K08  12 K08  12 K08  12 K08   hfs:P,P Co",3p6.3d8.(3F).4p y4F*,3p6.3d7.4s.(3F).5s h4F,0.5,1.0,1.0
TiO 1,4794.2087,0.491,0.8052946087703446,90.0,3.3905865494007594,89.0,99.0,99.0,99.0,7.273,0.0,0.0,0.019,_          -0.203296          6 wl:PPN2012   6 gf:PPN2012   6 PPN2012   6 PPN2012   6 PPN2012   6 PPN2012   6 PPN2012   6 PPN2012   6 PPN2012    (48)TiO,"8s2.9s1.3p4.1d1 X,3,2,0,91,2","8s2.11s1.3p4.1d1 C,3,2,0,90,5",0.5,1.0,1.0
TiO 1,4794.2112,-0.978,0.6358277755350414,45.0,3.221227979166687,44.0,99.0,99.0,99.0,7.303,0.0,0.0,0.001,_                             2 wl:PPN2012   2 gf:PPN2012   2 PPN2012   2 PPN2012   2 PPN2012   2 PPN2012   2 PPN2012   2 PPN2012   2 PPN2012    (47)TiO,"8s2.9s1.3p4.1d1 X,3,2,0,45,4","8s2.11s1.3p4.1d1 C,3,2,0,44,7",0.5,1.0,1.0
TiO 1,4794.2133,-0.578,0.8930218470074679,87.0,3.4780619881312407,88.0,99.0,99.0,99.0,7.271,0.0,0.0,0.001,_          -0.665931          2 wl:PPN2012   2 gf:PPN2012   2 PPN2012   2 PPN2012   2 PPN2012   2 PPN2012   2 PPN2012   2 PPN2012   2 PPN2012    (47)TiO,"8s2.9s1.3p4.1d1 X,3,2,0,88,3","8s2.11s1.3p4.1d1 C,3,2,0,89,6",0.5,1.0,1.0
Co 1,4794.2134,-3.05,4.071871943293596,4.5,6.657271011725929,3.5,1.31,1.28,1.37,8.42,-5.07,-7.53,0.016,"_          Kurucz CoI 2008   12 wl:K08  12 gf:K08  12 K08  12 K08  12 K08  12 K08  12 K08  12 K08  12 K08   hfs:P,P Co",3p6.3d8.(3F).4p y4F*,3p6.3d7.4s.(3F).5s h4F,0.5,1.0,1.0
Co 1,4794.2145,-3.9360000000000004,4.071861225479645,4.5,6.657259659360856,3.5,1.31,1.28,1.37,8.42,-5.07,-7.53,0.016,"_          Kurucz CoI 2008   12 wl:K08  12 gf:K08  12 K08  12 K08  12 K08  12 K08  12 K08  12 K08  12 K08   hfs:P,P Co",3p6.3d8.(3F).4p y4F*,3p6.3d7.4s.(3F).5s h4F,0.5,1.0,1.0
TiO 1,4794.216,0.154,0.12346981183166318,43.0,2.708889815739645,42.0,99.0,99.0,99.0,7.319,0.0,0.0,0.11,_          0.0415272          6 wl:PPN2012   6 gf:PPN2012   6 PPN2012   6 PPN2012   6 PPN2012   6 PPN2012   6 PPN2012   6 PPN2012   6 PPN2012    (48)TiO,"8s2.9s1.3p4.1d1 X,3,2,0,42,0","8s2.11s1.3p4.1d1 C,3,2,0,41,2",0.5,1.0,1.0
Co 1,4794.2178,-2.431,4.071887987964606,4.5,6.657284634737594,3.5,1.31,1.28,1.37,8.42,-5.07,-7.53,0.016,"_          Kurucz CoI 2008   12 wl:K08  12 gf:K08  12 K08  12 K08  12 K08  12 K08  12 K08  12 K08  12 K08   hfs:P,P Co",3p6.3d8.(3F).4p y4F*,3p6.3d7.4s.(3F).5s h4F,0.5,1.0,1.0
MgH 1,4794.2205,-2.647,0.0,0.5,2.585395231865327,1.5,99.0,99.0,99.0,7.39,0.0,0.0,0.006999999999999999,_                            18 wl:KMGH  18 gf:KMGH  18 KMGH  18 KMGH  18 KMGH  18 KMGH  18 KMGH  18 KMGH  18 KMGH    (24)MgH,"4s2.5s1 X,2,0,e,0,0","4s2.2p1 A,2,1,e,2,1",0.5,1.0,1.0
TiO 1,4794.2221,0.508,1.5437077771815517,129.0,4.129102141157497,130.0,99.0,99.0,99.0,7.206,0.0,0.0,0.001,_                             6 wl:PPN2012   6 gf:PPN2012   6 PPN2012   6 PPN2012   6 PPN2012   6 PPN2012   6 PPN2012   6 PPN2012   6 PPN2012    (48)TiO,"8s2.9s1.3p4.1d1 X,3,2,0,128,4","8s2.11s1.3p4.1d1 C,3,2,0,129,8",0.5,1.0,1.0
Co 1,4794.2233,-3.0439999999999996,4.071865949525537,4.5,6.657259659360856,3.5,1.31,1.28,1.37,8.42,-5.07,-7.53,0.016,"_          Kurucz CoI 2008   12 wl:K08  12 gf:K08  12 K08  12 K08  12 K08  12 K08  12 K08  12 K08  12 K08   hfs:P,P Co",3p6.3d8.(3F).4p y4F*,3p6.3d7.4s.(3F).5s h4F,0.5,1.0,1.0
Co 1,4794.2249,-3.9360000000000004,4.071857723669972,4.5,6.657250577394408,3.5,1.31,1.28,1.37,8.42,-5.07,-7.53,0.016,"_          Kurucz CoI 2008   12 wl:K08  12 gf:K08  12 K08  12 K08  12 K08  12 K08  12 K08  12 K08  12 K08   hfs:P,P Co",3p6.3d8.(3F).4p y4F*,3p6.3d7.4s.(3F).5s h4F,0.5,1.0,1.0
TiO 1,4794.2249,0.315,0.2604898318079971,61.0,2.8459197544517765,62.0,99.0,99.0,99.0,7.306,0.0,0.0,0.095,_          0.0687173          6 wl:PPN2012   6 gf:PPN2012   6 PPN2012   6 PPN2012   6 PPN2012   6 PPN2012   6 PPN2012   6 PPN2012   6 PPN2012    (48)TiO,"8s2.9s1.3p4.1d1 X,3,2,0,61,0","8s2.11s1.3p4.1d1 C,3,2,0,62,2",0.5,1.0,1.0
Co 1,4794.2269,-2.5469999999999997,4.071879265800298,4.5,6.657271011725929,3.5,1.31,1.28,1.37,8.42,-5.07,-7.53,0.016,"_          Kurucz CoI 2008   12 wl:K08  12 gf:K08  12 K08  12 K08  12 K08  12 K08  12 K08  12 K08  12 K08   hfs:P,P Co",3p6.3d8.(3F).4p y4F*,3p6.3d7.4s.(3F).5s h4F,0.5,1.0,1.0