species,wlcent,gflog,excit,j_lo,e_upp,j_up,lande_lower,lande_upper,lande,gamrad,gamqst,gamvw,depth,reference,term_lower,term_upper,error,atom_number,ionization
TiO 1,4833.2142,-0.804,0.3082687788945172,67.0,2.8728394513748854,66.0,99.0,99.0,99.0,7.303,0.0,0.0,0.006,_          0.0635790          4 wl:PPN2012   4 gf:PPN2012   4 PPN2012   4 PPN2012   4 PPN2012   4 PPN2012   4 PPN2012   4 PPN2012   4 PPN2012    (50)TiO,"8s2.9s1.3p4.1d1 X,3,2,0,67,0","8s2.11s1.3p4.1d1 C,3,2,0,66,2",0.5,1.0,1.0
TiO 1,4833.2167,-0.615,0.7458904321890749,63.0,3.3104260543368182,63.0,99.0,99.0,99.0,7.346,0.0,0.0,0.002,_                             6 wl:PPN2012   6 gf:PPN2012   6 PPN2012   6 PPN2012   6 PPN2012   6 PPN2012   6 PPN2012   6 PPN2012   6 PPN2012    (48)TiO,"8s2.9s1.3p4.1d1 X,3,2,+,62,4","8s2.3p4.4p1.1d1 B,3,1,-,62,8",0.5,1.0,1.0
TiO 1,4833.2288,-0.937,0.23461596638738813,36.0,2.7991884986307185,35.0,99.0,99.0,99.0,7.321000000000001,0.0,0.0,0.006,_          0.0815641          8 wl:PPN2012   8 gf:PPN2012   8 PPN2012   8 PPN2012   8 PPN2012   8 PPN2012   8 PPN2012   8 PPN2012   8 PPN2012    (49)TiO,"8s2.9s1.3p4.1d1 X,3,2,0,37,1","8s2.11s1.3p4.1d1 C,3,2,0,36,3",0.5,1.0,1.0
TiO 1,4833.2391,0.473,1.3992168414182602,86.0,3.9637405734814664,85.0,99.0,99.0,99.0,7.347,0.0,0.0,0.002,_                             6 wl:PPN2012   6 gf:PPN2012   6 PPN2012   6 PPN2012   6 PPN2012   6 PPN2012   6 PPN2012   6 PPN2012   6 PPN2012    (48)TiO,"8s2.9s1.3p4.1d1 a,1,2,0,86,4","8s2.11s1.3p4.1d1 f,1,2,0,85,7",0.5,1.0,1.0
TiO 1,4833.2444,-0.40399999999999997,0.985991484269381,105.0,3.5500711421325084,104.0,99.0,99.0,99.0,7.254,0.0,0.0,0.001,_          -0.831842          3 wl:PPN2012   3 gf:PPN2012   3 PPN2012   3 PPN2012   3 PPN2012   3 PPN2012   3 PPN2012   3 PPN2012   3 PPN2012    (46)TiO,"8s2.9s1.3p4.1d1 X,3,2,0,105,2","8s2.11s1.3p4.1d1 C,3,2,0,104,5",0.5,1.0,1.0
TiO 1,4833.271,0.39899999999999997,0.3519649263583461,57.0,2.916544500904093,58.0,99.0,99.0,99.0,7.308,0.0,0.0,0.08199999999999999,_          0.136976           6 wl:PPN2012   6 gf:PPN2012   6 PPN2012   6 PPN2012   6 PPN2012   6 PPN2012   6 PPN2012   6 PPN2012   6 PPN2012    (48)TiO,"8s2.9s1.3p4.1d1 X,3,2,0,57,1","8s2.11s1.3p4.1d1 C,3,2,0,58,3",0.5,1.0,1.0
TiO 1,4833.2734,-0.48700000000000004,0.5075905605375162,86.0,3.0721149125217093,87.0,99.0,99.0,99.0,7.282,0.0,0.0,0.006,_          0.0354091          3 wl:PPN2012   3 gf:PPN2012   3 PPN2012   3 PPN2012   3 PPN2012   3 PPN2012   3 PPN2012   3 PPN2012   3 PPN2012    (46)TiO,"8s2.9s1.3p4.1d1 X,3,2,0,86,0","8s2.11s1.3p4.1d1 C,3,2,0,87,2",0.5,1.0,1.0
TiO 1,4833.2836,0.47200000000000003,1.1488747442206007,109.0,3.7055812974301547,110.0,99.0,99.0,99.0,7.242999999999999,0.0,0.0,0.005,_          -14.7334           6 wl:PPN2012   6 gf:PPN2012   6 PPN2012   6 PPN2012   6 PPN2012   6 PPN2012   6 PPN2012   6 PPN2012   6 PPN2012    (48)TiO,"8s2.9s1.3p4.1d1 X,3,2,0,109,3","8s2.11s1.3p4.1d1 C,3,2,0,110,6",0.5,1.0,1.0
TiO 1,4833.3028,-0.9309999999999999,0.23096817771994052,38.0,2.795505672029066,37.0,99.0,99.0,99.0,7.32,0.0,0.0,0.006,_          0.0896130          4 wl:PPN2012   4 gf:PPN2012   4 PPN2012   4 PPN2012   4 PPN2012   4 PPN2012   4 PPN2012   4 PPN2012   4 PPN2012    (50)TiO,"8s2.9s1.3p4.1d1 X,3,2,0,38,1","8s2.11s1.3p4.1d1 C,3,2,0,37,3",0.5,1.0,1.0
TiO 1,4833.3117,0.35600000000000004,0.30568430350141296,68.0,2.8701664760616272,67.0,99.0,99.0,99.0,7.3020000000000005,0.0,0.0,0.08800000000000001,_          -0.00582391        6 wl:PPN2012   6 gf:PPN2012   6 PPN2012   6 PPN2012   6 PPN2012   6 PPN2012   6 PPN2012   6 PPN2012   6 PPN2012    (48)TiO,"8s2.9s1.3p4.1d1 X,3,2,0,67,0","8s2.11s1.3p4.1d1 C,3,2,0,66,2",0.5,1.0,1.0
Fe 1,4833.3178,-3.1689999999999996,4.30127812829488,1.0,6.865760077683539,1.0,-0.02,1.46,0.72,8.27,-4.91,-7.42,0.08199999999999999,_          Kurucz Fe I 2014   5 wl:K14   5 gf:K14   5 K14   5 K14   5 K14   5 K14   5 K14   5 K14   5 K14    Fe,3d7.(4F).4p y5F*,3d7.(4F).4d e3P,0.5,1.0,1.0
TiO 1,4833.3306,-0.7759999999999999,0.3411047165572465,54.0,2.9056289321588227,55.0,99.0,99.0,99.0,7.309,0.0,0.0,0.006,_          0.0924082          4 wl:PPN2012   4 gf:PPN2012   4 PPN2012   4 PPN2012   4 PPN2012   4 PPN2012   4 PPN2012   4 PPN2012   4 PPN2012    (50)TiO,"8s2.9s1.3p4.1d1 X,3,2,0,55,1","8s2.11s1.3p4.1d1 C,3,2,0,56,3",0.5,1.0,1.0
TiO 1,4833.338,-0.76,0.3418259574307697,56.0,2.9063688698493246,57.0,99.0,99.0,99.0,7.308,0.0,0.0,0.006,_          0.134987           4 wl:PPN2012   4 gf:PPN2012   4 PPN2012   4 PPN2012   4 PPN2012   4 PPN2012   4 PPN2012   4 PPN2012   4 PPN2012    (50)TiO,"8s2.9s1.3p4.1d1 X,3,2,0,56,1","8s2.11s1.3p4.1d1 C,3,2,0,57,3",0.5,1.0,1.0
TiO 1,4833.3508,-0.596,0.7907228080337793,65.0,3.355187201260076,65.0,99.0,99.0,99.0,7.35,0.0,0.0,0.002,_                             6 wl:PPN2012   6 gf:PPN2012   6 PPN2012   6 PPN2012   6 PPN2012   6 PPN2012   6 PPN2012   6 PPN2012   6 PPN2012    (48)TiO,"8s2.9s1.3p4.1d1 X,3,2,-,66,4","8s2.3p4.4p1.1d1 B,3,1,+,66,8",0.5,1.0,1.0
Nb 1,4833.353,-1.55,0.01911712340791892,1.5,2.583580227198562,2.5,1.86,1.39,1.04,0.0,0.0,0.0,0.74,_          Cu 1 - Ba 2 Bell  17 wl:DLa  17 gf:DLa  17 DLa  17 DLa  17 DLa  17 DLa  17 DLa  17 DLa  17 DLa    Nb,4d4.(a5D).5s a6D,4d3.5s.(a3F).5p z4D*,0.5,1.0,1.0
TiO 1,4833.3732,-0.124,0.5575655033312074,44.0,3.122018056066646,43.0,99.0,99.0,99.0,7.404,0.0,0.0,0.011000000000000001,_                             6 wl:PPN2012   6 gf:PPN2012   6 PPN2012   6 PPN2012   6 PPN2012   6 PPN2012   6 PPN2012   6 PPN2012   6 PPN2012    (48)TiO,"8s2.9s1.3p4.1d1 a,1,2,0,44,0","8s2.11s1.3p4.1d1 f,1,2,0,43,2",0.5,1.0,1.0
Fe 1,4833.3748,-1.9080000000000001,4.558522772921455,3.0,7.12297447016593,2.0,1.66,1.31,2.01,8.34,-4.44,-7.3,0.341,_          Kurucz Fe I 2014   5 wl:K14   5 gf:K14   5 K14   5 K14   5 K14   5 K14   5 K14   5 K14   5 K14    Fe,3d6.(5D).4s.4p.(1P*) y5P*,3d6.4s.(6D).5d 7G,0.5,1.0,1.0
TiO 1,4833.3807,-0.603,0.32913840653525667,67.0,2.8936272618437147,66.0,99.0,99.0,99.0,7.3020000000000005,0.0,0.0,0.009000000000000001,_          0.0759262          3 wl:PPN2012   3 gf:PPN2012   3 PPN2012   3 PPN2012   3 PPN2012   3 PPN2012   3 PPN2012   3 PPN2012   3 PPN2012    (46)TiO,"8s2.9s1.3p4.1d1 X,3,2,0,68,0","8s2.11s1.3p4.1d1 C,3,2,0,67,2",0.5,1.0,1.0
MgH 1,4833.3867,-2.819,0.3403097174846483,15.5,2.9047550915350535,14.5,99.0,99.0,99.0,7.06,0.0,0.0,0.001,_                            18 wl:KMGH  18 gf:KMGH  18 KMGH  18 KMGH  18 KMGH  18 KMGH  18 KMGH  18 KMGH  18 KMGH    (24)MgH,"4s2.5s1 X,2,0,e,15,1","4s1.5s2/4s2.7s1/4s2.6s1 B,2,0,e,14,1",0.5,1.0,1.0
MgH 1,4833.3867,-2.8480000000000003,0.3403097174846483,14.5,2.9047550915350535,13.5,99.0,99.0,99.0,7.06,0.0,0.0,0.001,_                            18 wl:KMGH  18 gf:KMGH  18 KMGH  18 KMGH  18 KMGH  18 KMGH  18 KMGH  18 KMGH  18 KMGH    (24)MgH,"4s2.5s1 X,2,0,f,15,1","4s1.5s2/4s2.7s1/4s2.6s1 B,2,0,f,14,1",0.5,1.0,1.0
TiO 1,4833.4027,0.544,0.9812079259625885,104.0,3.5454111960705936,103.0,99.0,99.0,99.0,7.255,0.0,0.0,0.011000000000000001,_          -0.440484          6 wl:PPN2012   6 gf:PPN2012   6 PPN2012   6 PPN2012   6 PPN2012   6 PPN2012   6 PPN2012   6 PPN2012   6 PPN2012    (48)TiO,"8s2.9s1.3p4.1d1 X,3,2,0,105,2","8s2.11s1.3p4.1d1 C,3,2,0,104,5",0.5,1.0,1.0
TiO 1,4833.4179,-0.589,0.34734791602401527,58.0,2.9118219428224554,59.0,99.0,99.0,99.0,7.307,0.0,0.0,0.009000000000000001,_          0.0852227          2 wl:PPN2012   2 gf:PPN2012   2 PPN2012   2 PPN2012   2 PPN2012   2 PPN2012   2 PPN2012   2 PPN2012   2 PPN2012    (47)TiO,"8s2.9s1.3p4.1d1 X,3,2,0,57,1","8s2.11s1.3p4.1d1 C,3,2,0,58,3",0.5,1.0,1.0
TiO 1,4833.4262,-0.6990000000000001,0.49128588226658987,84.0,3.055777018884281,85.0,99.0,99.0,99.0,7.284,0.0,0.0,0.004,_          0.125570           4 wl:PPN2012   4 gf:PPN2012   4 PPN2012   4 PPN2012   4 PPN2012   4 PPN2012   4 PPN2012   4 PPN2012   4 PPN2012    (50)TiO,"8s2.9s1.3p4.1d1 X,3,2,0,85,0","8s2.11s1.3p4.1d1 C,3,2,0,86,2",0.5,1.0,1.0
TiO 1,4833.4311,-0.6940000000000001,0.4863665612635676,85.0,3.0508078562338756,86.0,99.0,99.0,99.0,7.2829999999999995,0.0,0.0,0.004,_          0.0365811          4 wl:PPN2012   4 gf:PPN2012   4 PPN2012   4 PPN2012   4 PPN2012   4 PPN2012   4 PPN2012   4 PPN2012   4 PPN2012    (50)TiO,"8s2.9s1.3p4.1d1 X,3,2,0,85,0","8s2.11s1.3p4.1d1 C,3,2,0,86,2",0.5,1.0,1.0
TiO 1,4833.4357,-0.215,0.8236110670278409,54.0,3.3880304911857158,55.0,99.0,99.0,99.0,7.292999999999999,0.0,0.0,0.003,_                             6 wl:PPN2012   6 gf:PPN2012   6 PPN2012   6 PPN2012   6 PPN2012   6 PPN2012   6 PPN2012   6 PPN2012   6 PPN2012    (48)TiO,"8s2.9s1.3p4.1d1 X,3,2,0,55,5","8s2.11s1.3p4.1d1 C,3,2,0,56,8",0.5,1.0,1.0
TiO 1,4833.4475,-0.731,0.24705049033270418,38.0,2.8115078164597453,37.0,99.0,99.0,99.0,7.32,0.0,0.0,0.009000000000000001,_          0.0832269          3 wl:PPN2012   3 gf:PPN2012   3 PPN2012   3 PPN2012   3 PPN2012   3 PPN2012   3 PPN2012   3 PPN2012   3 PPN2012    (46)TiO,"8s2.9s1.3p4.1d1 X,3,2,0,39,1","8s2.11s1.3p4.1d1 C,3,2,0,38,3",0.5,1.0,1.0
TiO 1,4833.4649,0.46399999999999997,0.48631252895031013,86.0,3.050698626155905,87.0,99.0,99.0,99.0,7.282,0.0,0.0,0.057,_          -0.0336505         6 wl:PPN2012   6 gf:PPN2012   6 PPN2012   6 PPN2012   6 PPN2012   6 PPN2012   6 PPN2012   6 PPN2012   6 PPN2012    (48)TiO,"8s2.9s1.3p4.1d1 X,3,2,0,85,0","8s2.11s1.3p4.1d1 C,3,2,0,86,2",0.5,1.0,1.0
TiO 1,4833.4876,0.36700000000000005,1.4376870301618836,147.0,4.0019327896543615,148.0,99.0,99.0,99.0,7.18,0.0,0.0,0.001,_          -0.275517          6 wl:PPN2012   6 gf:PPN2012   6 PPN2012   6 PPN2012   6 PPN2012   6 PPN2012   6 PPN2012   6 PPN2012   6 PPN2012    (48)TiO,"8s2.9s1.3p4.1d1 X,3,2,0,148,0","8s2.11s1.3p4.1d1 C,3,2,0,149,3",0.5,1.0,1.0
TiO 1,4833.5134,-0.6409999999999999,0.32178414747969886,68.0,2.8861955250631577,67.0,99.0,99.0,99.0,7.3020000000000005,0.0,0.0,0.009000000000000001,_          0.0624593          2 wl:PPN2012   2 gf:PPN2012   2 PPN2012   2 PPN2012   2 PPN2012   2 PPN2012   2 PPN2012   2 PPN2012   2 PPN2012    (47)TiO,"8s2.9s1.3p4.1d1 X,3,2,0,68,0","8s2.11s1.3p4.1d1 C,3,2,0,67,2",0.5,1.0,1.0
TiO 1,4833.5227,0.374,1.4564635689793521,68.0,4.020836784226829,69.0,99.0,99.0,99.0,7.345,0.0,0.0,0.001,_                             6 wl:PPN2012   6 gf:PPN2012   6 PPN2012   6 PPN2012   6 PPN2012   6 PPN2012   6 PPN2012   6 PPN2012   6 PPN2012    (48)TiO,"8s2.9s1.3p4.1d1 a,1,2,0,68,6","8s2.11s1.3p4.1d1 f,1,2,0,69,9",0.5,1.0,1.0
TiO 1,4833.5321,-0.735,0.3369687401122603,57.0,2.9013811095692987,58.0,99.0,99.0,99.0,7.308,0.0,0.0,0.006999999999999999,_          0.0831816          8 wl:PPN2012   8 gf:PPN2012   8 PPN2012   8 PPN2012   8 PPN2012   8 PPN2012   8 PPN2012   8 PPN2012   8 PPN2012    (49)TiO,"8s2.9s1.3p4.1d1 X,3,2,0,56,1","8s2.11s1.3p4.1d1 C,3,2,0,57,3",0.5,1.0,1.0
TiO 1,4833.5455,-0.136,1.1831366613336929,95.0,3.747497750926658,96.0,99.0,99.0,99.0,7.428,0.0,0.0,0.001,_                             6 wl:PPN2012   6 gf:PPN2012   6 PPN2012   6 PPN2012   6 PPN2012   6 PPN2012   6 PPN2012   6 PPN2012   6 PPN2012    (48)TiO,"8s2.9s1.3p4.1d1 X,3,2,-,94,5","8s2.3p4.4p1.1d1 B,3,1,+,95,8",0.5,1.0,1.0
TiO 1,4833.5466,0.501,1.4999685080138425,125.0,4.064329076873178,124.0,99.0,99.0,99.0,7.215,0.0,0.0,0.002,_                             6 wl:PPN2012   6 gf:PPN2012   6 PPN2012   6 PPN2012   6 PPN2012   6 PPN2012   6 PPN2012   6 PPN2012   6 PPN2012    (48)TiO,"8s2.9s1.3p4.1d1 X,3,2,0,125,4","8s2.11s1.3p4.1d1 C,3,2,0,124,8",0.5,1.0,1.0
TiO 1,4833.5531,-0.752,0.23128964394714108,40.0,2.7956714389010835,39.0,99.0,99.0,99.0,7.319,0.0,0.0,0.01,_          0.0465325          2 wl:PPN2012   2 gf:PPN2012   2 PPN2012   2 PPN2012   2 PPN2012   2 PPN2012   2 PPN2012   2 PPN2012   2 PPN2012    (47)TiO,"8s2.9s1.3p4.1d1 X,3,2,0,39,1","8s2.11s1.3p4.1d1 C,3,2,0,38,3",0.5,1.0,1.0
TiO 1,4833.569,-0.521,0.8527007601719115,58.0,3.4170494885403886,58.0,99.0,99.0,99.0,7.41,0.0,0.0,0.002,_                             6 wl:PPN2012   6 gf:PPN2012   6 PPN2012   6 PPN2012   6 PPN2012   6 PPN2012   6 PPN2012   6 PPN2012   6 PPN2012    (48)TiO,"8s2.9s1.3p4.1d1 X,3,2,-,59,5","8s2.3p4.4p1.1d1 B,3,1,+,59,9",0.5,1.0,1.0
TiO 1,4833.5756,0.124,1.2612252812705504,100.0,3.8255704760894,100.0,99.0,99.0,99.0,7.441,0.0,0.0,0.001,_                             6 wl:PPN2012   6 gf:PPN2012   6 PPN2012   6 PPN2012   6 PPN2012   6 PPN2012   6 PPN2012   6 PPN2012   6 PPN2012    (48)TiO,"8s2.9s1.3p4.1d1 X,3,2,+,100,5","8s2.3p4.4p1.1d1 B,3,1,-,100,8",0.5,1.0,1.0
TiO 1,4833.5781,0.547,0.977028344275352,105.0,3.5409310270950107,104.0,99.0,99.0,99.0,7.254,0.0,0.0,0.011000000000000001,_          -0.831842          6 wl:PPN2012   6 gf:PPN2012   6 PPN2012   6 PPN2012   6 PPN2012   6 PPN2012   6 PPN2012   6 PPN2012   6 PPN2012    (48)TiO,"8s2.9s1.3p4.1d1 X,3,2,0,105,2","8s2.11s1.3p4.1d1 C,3,2,0,104,5",0.5,1.0,1.0
TiO 1,4833.5869,0.596,1.318292851666298,135.0,3.8818692204766347,136.0,99.0,99.0,99.0,7.202999999999999,0.0,0.0,0.004,_          -1.43831           6 wl:PPN2012   6 gf:PPN2012   6 PPN2012   6 PPN2012   6 PPN2012   6 PPN2012   6 PPN2012   6 PPN2012   6 PPN2012    (48)TiO,"8s2.9s1.3p4.1d1 X,3,2,0,135,1","8s2.11s1.3p4.1d1 C,3,2,0,136,4",0.5,1.0,1.0
TiO 1,4833.5898,-1.11,0.5642452387588488,45.0,3.128582895338492,44.0,99.0,99.0,99.0,7.404,0.0,0.0,0.001,_                             2 wl:PPN2012   2 gf:PPN2012   2 PPN2012   2 PPN2012   2 PPN2012   2 PPN2012   2 PPN2012   2 PPN2012   2 PPN2012    (47)TiO,"8s2.9s1.3p4.1d1 a,1,2,0,45,0","8s2.11s1.3p4.1d1 f,1,2,0,44,2",0.5,1.0,1.0
CH 1,4833.594,-3.13,0.40767367954350014,5.5,2.9720092035949466,6.5,99.0,99.0,99.0,6.27,0.0,0.0,0.008,_                            37 wl:JLIY  37 gf:JLIY  37 JLIY  37 JLIY  37 JLIY  37 JLIY  37 JLIY  37 JLIY  37 JLIY    (12)CH,"1s2.2s2.3s2.1p1 X,2,1,e,6,1","1s2.2s2.3s1.1p2 A,2,2,e,7,0",0.5,1.0,1.0
TiO 1,4833.6066,-0.32799999999999996,0.7198431748683041,39.0,3.284171904585729,38.0,99.0,99.0,99.0,7.3020000000000005,0.0,0.0,0.004,_                             6 wl:PPN2012   6 gf:PPN2012   6 PPN2012   6 PPN2012   6 PPN2012   6 PPN2012   6 PPN2012   6 PPN2012   6 PPN2012    (48)TiO,"8s2.9s1.3p4.1d1 X,3,2,0,39,5","8s2.11s1.3p4.1d1 C,3,2,0,38,8",0.5,1.0,1.0
TiO 1,4833.6532,-0.604,0.3597687273170911,56.0,2.924121919116677,57.0,99.0,99.0,99.0,7.308,0.0,0.0,0.008,_          0.0925864          2 wl:PPN2012   2 gf:PPN2012   2 PPN2012   2 PPN2012   2 PPN2012   2 PPN2012   2 PPN2012   2 PPN2012   2 PPN2012    (47)TiO,"8s2.9s1.3p4.1d1 X,3,2,0,57,1","8s2.11s1.3p4.1d1 C,3,2,0,58,3",0.5,1.0,1.0
Cr 1,4833.6536,-3.395,2.8995368446319305,3.0,5.463840628728825,3.0,1.92,1.5,1.71,7.88,-4.46,-7.38,0.076,_          Kurucz Cr I 2016  10 wl:K16  10 gf:K16  10 K16  10 K16  10 K16  10 K16  10 K16  10 K16  10 K16    Cr,3d5.(6S).4p z7P*,3d5.(6S).4d e5D,0.5,1.0,1.0
Sc 1,4833.6641,-0.244,2.135756744988311,0.5,4.700054949796319,1.5,2.66,1.73,1.5,8.0,-5.78,-7.7,0.525,_          Kurucz ScI 2009   23 wl:K09  23 gf:K09  23 K09  23 K09  23 K09  23 K09  23 K09  23 K09  23 K09    Sc,3d2.(3P).4s 4P,3d2.(3P).4p 4P*,0.5,1.0,1.0
TiO 1,4833.6758,-0.539,0.8107402178947881,56.0,3.3750322358913425,56.0,99.0,99.0,99.0,7.405,0.0,0.0,0.002,_                             6 wl:PPN2012   6 gf:PPN2012   6 PPN2012   6 PPN2012   6 PPN2012   6 PPN2012   6 PPN2012   6 PPN2012   6 PPN2012    (48)TiO,"8s2.9s1.3p4.1d1 X,3,2,+,55,5","8s2.3p4.4p1.1d1 B,3,1,-,55,9",0.5,1.0,1.0
TiO 1,4833.6832,0.209,0.24028435031784587,37.0,2.8046161548433686,36.0,99.0,99.0,99.0,7.32,0.0,0.0,0.081,_          0.0824251          6 wl:PPN2012   6 gf:PPN2012   6 PPN2012   6 PPN2012   6 PPN2012   6 PPN2012   6 PPN2012   6 PPN2012   6 PPN2012    (48)TiO,"8s2.9s1.3p4.1d1 X,3,2,0,38,1","8s2.11s1.3p4.1d1 C,3,2,0,37,3",0.5,1.0,1.0
TiO 1,4833.6911,-0.9009999999999999,0.2243938784538278,39.0,2.788701543256103,38.0,99.0,99.0,99.0,7.32,0.0,0.0,0.006999999999999999,_          0.0447057          8 wl:PPN2012   8 gf:PPN2012   8 PPN2012   8 PPN2012   8 PPN2012   8 PPN2012   8 PPN2012   8 PPN2012   8 PPN2012    (49)TiO,"8s2.9s1.3p4.1d1 X,3,2,0,38,1","8s2.11s1.3p4.1d1 C,3,2,0,37,3",0.5,1.0,1.0
TiO 1,4833.6932,0.611,1.3841764424073566,140.0,3.939620439737233,141.0,99.0,99.0,99.0,7.194,0.0,0.0,0.003,_          -16.7191           6 wl:PPN2012   6 gf:PPN2012   6 PPN2012   6 PPN2012   6 PPN2012   6 PPN2012   6 PPN2012   6 PPN2012   6 PPN2012    (48)TiO,"8s2.9s1.3p4.1d1 X,3,2,0,139,1","8s2.11s1.3p4.1d1 C,3,2,0,140,4",0.5,1.0,1.0
TiO 1,4833.6968,-0.43,0.9993469752319248,45.0,3.5636278222522875,45.0,99.0,99.0,99.0,7.495,0.0,0.0,0.001,_                             6 wl:PPN2012   6 gf:PPN2012   6 PPN2012   6 PPN2012   6 PPN2012   6 PPN2012   6 PPN2012   6 PPN2012   6 PPN2012    (48)TiO,"8s2.9s1.3p4.1d1 X,3,2,+,46,7","8s2.3p4.4p1.1d1 B,3,1,-,46,11",0.5,1.0,1.0
TiO 1,4833.7079,-0.205,0.8107402178947881,56.0,3.375015250056289,57.0,99.0,99.0,99.0,7.292000000000001,0.0,0.0,0.004,_                             6 wl:PPN2012   6 gf:PPN2012   6 PPN2012   6 PPN2012   6 PPN2012   6 PPN2012   6 PPN2012   6 PPN2012   6 PPN2012    (48)TiO,"8s2.9s1.3p4.1d1 X,3,2,0,55,5","8s2.11s1.3p4.1d1 C,3,2,0,56,8",0.5,1.0,1.0
TiO 1,4833.7086,0.513,1.5616577133544869,90.0,4.125932361164976,91.0,99.0,99.0,99.0,7.336,0.0,0.0,0.001,_                             6 wl:PPN2012   6 gf:PPN2012   6 PPN2012   6 PPN2012   6 PPN2012   6 PPN2012   6 PPN2012   6 PPN2012   6 PPN2012    (48)TiO,"8s2.9s1.3p4.1d1 a,1,2,0,90,5","8s2.11s1.3p4.1d1 f,1,2,0,91,8",0.5,1.0,1.0
TiO 1,4833.724,-0.8109999999999999,0.314057427496521,66.0,2.8783639392457596,65.0,99.0,99.0,99.0,7.303,0.0,0.0,0.006,_          0.0754960          4 wl:PPN2012   4 gf:PPN2012   4 PPN2012   4 PPN2012   4 PPN2012   4 PPN2012   4 PPN2012   4 PPN2012   4 PPN2012    (50)TiO,"8s2.9s1.3p4.1d1 X,3,2,0,67,0","8s2.11s1.3p4.1d1 C,3,2,0,66,2",0.5,1.0,1.0
TiO 1,4833.7525,-0.537,0.5097094752691201,85.0,3.0740294764990437,86.0,99.0,99.0,99.0,7.2829999999999995,0.0,0.0,0.005,_          0.129405           2 wl:PPN2012   2 gf:PPN2012   2 PPN2012   2 PPN2012   2 PPN2012   2 PPN2012   2 PPN2012   2 PPN2012   2 PPN2012    (47)TiO,"8s2.9s1.3p4.1d1 X,3,2,0,86,0","8s2.11s1.3p4.1d1 C,3,2,0,87,2",0.5,1.0,1.0
Dy 2,4833.753,-0.83,1.925488224972798,6.5,4.4897393157857675,7.5,1.36,1.4,1.56,0.0,0.0,0.0,0.019,_          La1 to Lu 2 Bell   1 wl:MC   1 gf:MC   1 MC   1 MC   1 MC   1 MC   1 MC   1 MC   1 MC    Dy+,4f9.(6H*).5d.\ (7H*).6s  *,4f9.(7H*).6s.6p.(3P*) 8G,0.5,1.0,2.0
TiO 1,4833.7559,-0.753,0.24380686535216967,40.0,2.8081070539073374,39.0,99.0,99.0,99.0,7.319,0.0,0.0,0.009000000000000001,_          0.0954654          2 wl:PPN2012   2 gf:PPN2012   2 PPN2012   2 PPN2012   2 PPN2012   2 PPN2012   2 PPN2012   2 PPN2012   2 PPN2012    (47)TiO,"8s2.9s1.3p4.1d1 X,3,2,0,40,1","8s2.11s1.3p4.1d1 C,3,2,0,39,3",0.5,1.0,1.0
TiO 1,4833.7839,0.153,0.807888246595642,67.0,3.372122946697706,66.0,99.0,99.0,99.0,7.289,0.0,0.0,0.008,_                             6 wl:PPN2012   6 gf:PPN2012   6 PPN2012   6 PPN2012   6 PPN2012   6 PPN2012   6 PPN2012   6 PPN2012   6 PPN2012    (48)TiO,"8s2.9s1.3p4.1d1 X,3,2,0,68,4","8s2.11s1.3p4.1d1 C,3,2,0,67,7",0.5,1.0,1.0
TiO 1,4833.801,-1.055,0.5711554484111673,46.0,3.1353810728699765,45.0,99.0,99.0,99.0,7.404,0.0,0.0,0.001,_                             3 wl:PPN2012   3 gf:PPN2012   3 PPN2012   3 PPN2012   3 PPN2012   3 PPN2012   3 PPN2012   3 PPN2012   3 PPN2012    (46)TiO,"8s2.9s1.3p4.1d1 a,1,2,0,46,0","8s2.11s1.3p4.1d1 f,1,2,0,45,2",0.5,1.0,1.0
TiO 1,4833.8183,-0.532,0.5048918585032827,86.0,3.069127017346877,87.0,99.0,99.0,99.0,7.282,0.0,0.0,0.005,_          0.0354091          2 wl:PPN2012   2 gf:PPN2012   2 PPN2012   2 PPN2012   2 PPN2012   2 PPN2012   2 PPN2012   2 PPN2012   2 PPN2012    (47)TiO,"8s2.9s1.3p4.1d1 X,3,2,0,86,0","8s2.11s1.3p4.1d1 C,3,2,0,87,2",0.5,1.0,1.0
TiO 1,4833.819,-0.75,0.34958478932109227,55.0,2.9138499523404744,56.0,99.0,99.0,99.0,7.309,0.0,0.0,0.006,_          0.0925237          8 wl:PPN2012   8 gf:PPN2012   8 PPN2012   8 PPN2012   8 PPN2012   8 PPN2012   8 PPN2012   8 PPN2012   8 PPN2012    (49)TiO,"8s2.9s1.3p4.1d1 X,3,2,0,56,1","8s2.11s1.3p4.1d1 C,3,2,0,57,3",0.5,1.0,1.0