species,wlcent,gflog,excit,j_lo,e_upp,j_up,lande_lower,lande_upper,lande,gamrad,gamqst,gamvw,depth,reference,term_lower,term_upper,error,atom_number,ionization
TiO 1,4888.5226,-0.679,0.5338173345778041,66.0,3.069227444546828,67.0,99.0,99.0,99.0,7.297999999999999,0.0,0.0,0.004,_          -0.216316          2 wl:PPN2012   2 gf:PPN2012   2 PPN2012   2 PPN2012   2 PPN2012   2 PPN2012   2 PPN2012   2 PPN2012   2 PPN2012    (47)TiO,"8s2.9s1.3p4.1d1 X,3,2,0,65,2","8s2.11s1.3p4.1d1 C,3,2,0,66,4",0.5,1.0,1.0
TiO 1,4888.5253,0.146,1.1364036077417716,91.0,3.671924547184914,91.0,99.0,99.0,99.0,7.412000000000001,0.0,0.0,0.002,_                             6 wl:PPN2012   6 gf:PPN2012   6 PPN2012   6 PPN2012   6 PPN2012   6 PPN2012   6 PPN2012   6 PPN2012   6 PPN2012    (48)TiO,"8s2.9s1.3p4.1d1 X,3,2,+,90,5","8s2.3p4.4p1.1d1 B,3,1,-,90,8",0.5,1.0,1.0
TiO 1,4888.5257,0.22,1.041153987877321,90.0,3.5766746793520685,89.0,99.0,99.0,99.0,7.266,0.0,0.0,0.004,_                             6 wl:PPN2012   6 gf:PPN2012   6 PPN2012   6 PPN2012   6 PPN2012   6 PPN2012   6 PPN2012   6 PPN2012   6 PPN2012    (48)TiO,"8s2.9s1.3p4.1d1 X,3,2,0,91,4","8s2.11s1.3p4.1d1 C,3,2,0,90,7",0.5,1.0,1.0
TiO 1,4888.5266,-0.9670000000000001,0.4049736880736129,45.0,2.940500727539271,44.0,99.0,99.0,99.0,7.314,0.0,0.0,0.003,_          0.0130179          8 wl:PPN2012   8 gf:PPN2012   8 PPN2012   8 PPN2012   8 PPN2012   8 PPN2012   8 PPN2012   8 PPN2012   8 PPN2012    (49)TiO,"8s2.9s1.3p4.1d1 X,3,2,0,46,2","8s2.11s1.3p4.1d1 C,3,2,0,45,4",0.5,1.0,1.0
TiO 1,4888.5341,-0.841,0.5192885315609214,65.0,3.0547085230704836,66.0,99.0,99.0,99.0,7.2989999999999995,0.0,0.0,0.002,_          -0.185766          4 wl:PPN2012   4 gf:PPN2012   4 PPN2012   4 PPN2012   4 PPN2012   4 PPN2012   4 PPN2012   4 PPN2012   4 PPN2012    (50)TiO,"8s2.9s1.3p4.1d1 X,3,2,0,64,2","8s2.11s1.3p4.1d1 C,3,2,0,65,4",0.5,1.0,1.0
TiO 1,4888.5352,-0.605,0.8251292039321836,39.0,3.360644985632711,39.0,99.0,99.0,99.0,7.44,0.0,0.0,0.001,_                             6 wl:PPN2012   6 gf:PPN2012   6 PPN2012   6 PPN2012   6 PPN2012   6 PPN2012   6 PPN2012   6 PPN2012   6 PPN2012    (48)TiO,"8s2.9s1.3p4.1d1 X,3,2,-,38,6","8s2.3p4.4p1.1d1 B,3,1,+,38,10",0.5,1.0,1.0
TiO 1,4888.5385,0.14800000000000002,1.2201508540527457,74.0,3.7556649619666076,74.0,99.0,99.0,99.0,7.537999999999999,0.0,0.0,0.002,_                             6 wl:PPN2012   6 gf:PPN2012   6 PPN2012   6 PPN2012   6 PPN2012   6 PPN2012   6 PPN2012   6 PPN2012   6 PPN2012    (48)TiO,"8s2.9s1.3p4.1d1 X,3,2,-,75,7","8s2.3p4.4p1.1d1 B,3,1,+,75,10",0.5,1.0,1.0
TiO 1,4888.5625,-0.5329999999999999,0.9013938799416382,58.0,3.4368955150452347,59.0,99.0,99.0,99.0,7.382999999999999,0.0,0.0,0.001,_                             3 wl:PPN2012   3 gf:PPN2012   3 PPN2012   3 PPN2012   3 PPN2012   3 PPN2012   3 PPN2012   3 PPN2012   3 PPN2012    (46)TiO,"8s2.9s1.3p4.1d1 a,1,2,0,58,2","8s2.11s1.3p4.1d1 f,1,2,0,59,4",0.5,1.0,1.0
TiO 1,4888.5706,0.621,1.4135991323089925,135.0,3.9230959498826117,134.0,99.0,99.0,99.0,7.206,0.0,0.0,0.002,_          -50.6506           6 wl:PPN2012   6 gf:PPN2012   6 PPN2012   6 PPN2012   6 PPN2012   6 PPN2012   6 PPN2012   6 PPN2012   6 PPN2012    (48)TiO,"8s2.9s1.3p4.1d1 X,3,2,0,134,2","8s2.11s1.3p4.1d1 C,3,2,0,133,5",0.5,1.0,1.0
Fe 1,4888.5816,-3.282,4.912973508048558,4.0,7.448465224416357,3.0,1.49,1.39,1.63,8.69,-3.65,-7.11,0.01,_          Kurucz Fe I 2014   5 wl:K14   5 gf:K14   5 K14   5 K14   5 K14   5 K14   5 K14   5 K14   5 K14    Fe,3d6.(5D).4s.4p.(1P*) x5D*,3d6.4s.(6D<3/2>).6d 2[5/2],0.5,1.0,1.0
TiO 1,4888.5966,0.059000000000000004,1.1693644346866126,82.0,3.704848426838909,82.0,99.0,99.0,99.0,7.479,0.0,0.0,0.002,_                             6 wl:PPN2012   6 gf:PPN2012   6 PPN2012   6 PPN2012   6 PPN2012   6 PPN2012   6 PPN2012   6 PPN2012   6 PPN2012    (48)TiO,"8s2.9s1.3p4.1d1 X,3,2,+,82,6","8s2.3p4.4p1.1d1 B,3,1,-,82,9",0.5,1.0,1.0
TiO 1,4888.5977,0.235,1.2198265733842626,107.0,3.7553099952092506,108.0,99.0,99.0,99.0,7.242999999999999,0.0,0.0,0.002,_                             6 wl:PPN2012   6 gf:PPN2012   6 PPN2012   6 PPN2012   6 PPN2012   6 PPN2012   6 PPN2012   6 PPN2012   6 PPN2012    (48)TiO,"8s2.9s1.3p4.1d1 X,3,2,0,106,4","8s2.11s1.3p4.1d1 C,3,2,0,107,7",0.5,1.0,1.0
TiO 1,4888.6051,-0.773,0.7538712205897086,34.0,3.2893508484982537,33.0,99.0,99.0,99.0,7.393,0.0,0.0,0.001,_                             3 wl:PPN2012   3 gf:PPN2012   3 PPN2012   3 PPN2012   3 PPN2012   3 PPN2012   3 PPN2012   3 PPN2012   3 PPN2012    (46)TiO,"8s2.9s1.3p4.1d1 a,1,2,0,34,2","8s2.11s1.3p4.1d1 f,1,2,0,33,4",0.5,1.0,1.0
TiO 1,4888.6146,-0.163,0.9409183807068687,72.0,3.4763930368490956,71.0,99.0,99.0,99.0,7.281000000000001,0.0,0.0,0.002,_                             6 wl:PPN2012   6 gf:PPN2012   6 PPN2012   6 PPN2012   6 PPN2012   6 PPN2012   6 PPN2012   6 PPN2012   6 PPN2012    (48)TiO,"8s2.9s1.3p4.1d1 X,3,2,0,71,5","8s2.11s1.3p4.1d1 C,3,2,0,70,8",0.5,1.0,1.0
Fe 1,4888.6361,-0.685,4.103373684403681,4.0,6.638837132374456,4.0,1.5,1.26,1.38,8.47,-4.45,-7.51,0.807,_          Kurucz Fe I 2014   5 wl:K14   5 gf:K14   5 K14   5 K14   5 K14   5 K14   5 K14   5 K14   5 K14    Fe,3d7.(4F).4p y5D*,3d7.(4F).4d g5F,0.5,1.0,1.0
Ce 2,4888.6409,-2.35,0.45918712984517845,3.5,2.9946480981320045,3.5,1.09,1.05,1.07,0.0,0.0,0.0,0.091,C-0.008    Ce 2: DREAM data  15 wl:PQWB  15 gf:PQWB  15 PQWB  15 PQWB  15 PQWB  15 PQWB  15 PQWB  15 PQWB  15 PQWB    Ce+,4f.(2F*).5d2.(3F) *,4f2.(1D).5d 4f2.(1D).5d,0.008,1.0,2.0
TiO 1,4888.6469,-0.802,0.3999917302540288,48.0,2.935471804505685,47.0,99.0,99.0,99.0,7.313,0.0,0.0,0.004,_          0.0427681          2 wl:PPN2012   2 gf:PPN2012   2 PPN2012   2 PPN2012   2 PPN2012   2 PPN2012   2 PPN2012   2 PPN2012   2 PPN2012    (47)TiO,"8s2.9s1.3p4.1d1 X,3,2,0,47,2","8s2.11s1.3p4.1d1 C,3,2,0,46,4",0.5,1.0,1.0
TiO 1,4888.6627,-0.556,0.6615532442696983,91.0,3.196977290062518,92.0,99.0,99.0,99.0,7.275,0.0,0.0,0.003,_          -0.0494182         8 wl:PPN2012   8 gf:PPN2012   8 PPN2012   8 PPN2012   8 PPN2012   8 PPN2012   8 PPN2012   8 PPN2012   8 PPN2012    (49)TiO,"8s2.9s1.3p4.1d1 X,3,2,0,90,1","8s2.11s1.3p4.1d1 C,3,2,0,91,3",0.5,1.0,1.0
Ce 2,4888.6662,-1.93,1.0267064441034603,2.5,3.5621542700653546,3.5,1.19,1.12,1.04,0.0,0.0,0.0,0.034,C 0.023    Ce 2: DREAM data  15 wl:PQWB  15 gf:PQWB  15 PQWB  15 PQWB  15 PQWB  15 PQWB  15 PQWB  15 PQWB  15 PQWB    Ce+,4f.(2F*).5d2.(3P) 2D*,4f.5d.(3F*).6p 4F,0.023,1.0,2.0
TiO 1,4888.6746,0.10400000000000001,1.2346592244738854,66.0,3.770102673793609,66.0,99.0,99.0,99.0,7.553,0.0,0.0,0.001,_                             6 wl:PPN2012   6 gf:PPN2012   6 PPN2012   6 PPN2012   6 PPN2012   6 PPN2012   6 PPN2012   6 PPN2012   6 PPN2012    (48)TiO,"8s2.9s1.3p4.1d1 X,3,2,-,65,8","8s2.3p4.4p1.1d1 B,3,1,+,65,11",0.5,1.0,1.0
TiO 1,4888.6803,-0.5670000000000001,0.8083207158748374,109.0,3.3439117063895507,110.0,99.0,99.0,99.0,7.251,0.0,0.0,0.002,_          0.289985           8 wl:PPN2012   8 gf:PPN2012   8 PPN2012   8 PPN2012   8 PPN2012   8 PPN2012   8 PPN2012   8 PPN2012   8 PPN2012    (49)TiO,"8s2.9s1.3p4.1d1 X,3,2,0,110,0","8s2.11s1.3p4.1d1 C,3,2,0,111,2",0.5,1.0,1.0
TiO 1,4888.6908,-0.9670000000000001,0.3897228258875037,47.0,2.9251803722104794,46.0,99.0,99.0,99.0,7.313,0.0,0.0,0.003,_          0.0432292          4 wl:PPN2012   4 gf:PPN2012   4 PPN2012   4 PPN2012   4 PPN2012   4 PPN2012   4 PPN2012   4 PPN2012   4 PPN2012    (50)TiO,"8s2.9s1.3p4.1d1 X,3,2,0,46,2","8s2.11s1.3p4.1d1 C,3,2,0,45,4",0.5,1.0,1.0
TiO 1,4888.6913,-0.503,0.5705221495289097,93.0,3.105936437765388,92.0,99.0,99.0,99.0,7.276,0.0,0.0,0.005,_          -0.0396175         2 wl:PPN2012   2 gf:PPN2012   2 PPN2012   2 PPN2012   2 PPN2012   2 PPN2012   2 PPN2012   2 PPN2012   2 PPN2012    (47)TiO,"8s2.9s1.3p4.1d1 X,3,2,0,92,0","8s2.11s1.3p4.1d1 C,3,2,0,91,2",0.5,1.0,1.0
Ti 1,4888.7105,-0.62,3.2848782425587166,2.0,5.820303131444079,2.0,0.34,0.34,0.34,8.72,-5.46,-7.66,0.33799999999999997,E0.06      Kurucz TiI 2016   22 wl:K16  24 gf:NWL  22 K16  22 K16  22 K16  22 K16  22 K16  22 K16  22 K16    Ti,3d3.(4F).4p y5G*,3d2.4p2 g5G,1.1481536214968828,1.0,1.0
TiO 1,4888.7212,-0.511,0.4961753850701205,72.0,3.0316323362689483,71.0,99.0,99.0,99.0,7.296,0.0,0.0,0.006,_          0.0725063          2 wl:PPN2012   2 gf:PPN2012   2 PPN2012   2 PPN2012   2 PPN2012   2 PPN2012   2 PPN2012   2 PPN2012   2 PPN2012    (47)TiO,"8s2.9s1.3p4.1d1 X,3,2,0,73,1","8s2.11s1.3p4.1d1 C,3,2,0,72,3",0.5,1.0,1.0
TiO 1,4888.7232,0.304,1.1707264382910811,106.0,3.7061448056076567,107.0,99.0,99.0,99.0,7.364,0.0,0.0,0.003,_                             6 wl:PPN2012   6 gf:PPN2012   6 PPN2012   6 PPN2012   6 PPN2012   6 PPN2012   6 PPN2012   6 PPN2012   6 PPN2012    (48)TiO,"8s2.9s1.3p4.1d1 a,1,2,0,106,0","8s2.11s1.3p4.1d1 f,1,2,0,107,2",0.5,1.0,1.0
CH 1,4888.739,-3.3139999999999996,0.35756410230977603,3.5,2.8929742370756393,3.5,99.0,99.0,99.0,6.27,0.0,0.0,0.006,_                            37 wl:JLIY  37 gf:JLIY  37 JLIY  37 JLIY  37 JLIY  37 JLIY  37 JLIY  37 JLIY  37 JLIY    (12)CH,"1s2.2s2.3s2.1p1 X,2,1,f,3,1","1s2.2s2.3s1.1p2 A,2,2,e,3,0",0.5,1.0,1.0
TiO 1,4888.7438,0.312,0.5373907203283499,65.0,3.0728603055169,66.0,99.0,99.0,99.0,7.2989999999999995,0.0,0.0,0.034,_          0.119514           6 wl:PPN2012   6 gf:PPN2012   6 PPN2012   6 PPN2012   6 PPN2012   6 PPN2012   6 PPN2012   6 PPN2012   6 PPN2012    (48)TiO,"8s2.9s1.3p4.1d1 X,3,2,0,65,2","8s2.11s1.3p4.1d1 C,3,2,0,66,4",0.5,1.0,1.0
TiO 1,4888.7488,-0.38,0.8168507666686835,110.0,3.352265513646693,111.0,99.0,99.0,99.0,7.25,0.0,0.0,0.002,_          0.0186891          3 wl:PPN2012   3 gf:PPN2012   3 PPN2012   3 PPN2012   3 PPN2012   3 PPN2012   3 PPN2012   3 PPN2012   3 PPN2012    (46)TiO,"8s2.9s1.3p4.1d1 X,3,2,0,110,0","8s2.11s1.3p4.1d1 C,3,2,0,111,2",0.5,1.0,1.0
TiO 1,4888.7723,-0.377,0.6920941104530581,90.0,3.2275105064208938,91.0,99.0,99.0,99.0,7.275,0.0,0.0,0.004,_          0.0454500          3 wl:PPN2012   3 gf:PPN2012   3 PPN2012   3 PPN2012   3 PPN2012   3 PPN2012   3 PPN2012   3 PPN2012   3 PPN2012    (46)TiO,"8s2.9s1.3p4.1d1 X,3,2,0,91,1","8s2.11s1.3p4.1d1 C,3,2,0,92,3",0.5,1.0,1.0
TiO 1,4888.7774,-0.152,1.1123562899167123,86.0,3.6477465128204623,87.0,99.0,99.0,99.0,7.265,0.0,0.0,0.001,_                             6 wl:PPN2012   6 gf:PPN2012   6 PPN2012   6 PPN2012   6 PPN2012   6 PPN2012   6 PPN2012   6 PPN2012   6 PPN2012    (48)TiO,"8s2.9s1.3p4.1d1 X,3,2,0,87,5","8s2.11s1.3p4.1d1 C,3,2,0,88,8",0.5,1.0,1.0
TiO 1,4888.778,-0.757,0.4144954016740843,48.0,2.9498940183080027,47.0,99.0,99.0,99.0,7.312,0.0,0.0,0.005,_          0.0168236          3 wl:PPN2012   3 gf:PPN2012   3 PPN2012   3 PPN2012   3 PPN2012   3 PPN2012   3 PPN2012   3 PPN2012   3 PPN2012    (46)TiO,"8s2.9s1.3p4.1d1 X,3,2,0,48,2","8s2.11s1.3p4.1d1 C,3,2,0,47,4",0.5,1.0,1.0
TiO 1,4888.807,0.491,0.48855940777212303,73.0,3.0240143752237914,72.0,99.0,99.0,99.0,7.296,0.0,0.0,0.061,_          0.154395           6 wl:PPN2012   6 gf:PPN2012   6 PPN2012   6 PPN2012   6 PPN2012   6 PPN2012   6 PPN2012   6 PPN2012   6 PPN2012    (48)TiO,"8s2.9s1.3p4.1d1 X,3,2,0,73,1","8s2.11s1.3p4.1d1 C,3,2,0,72,3",0.5,1.0,1.0
TiO 1,4888.8082,0.488,1.481995758748573,131.0,4.00149524942149,132.0,99.0,99.0,99.0,7.207000000000001,0.0,0.0,0.001,_          -30.8034           6 wl:PPN2012   6 gf:PPN2012   6 PPN2012   6 PPN2012   6 PPN2012   6 PPN2012   6 PPN2012   6 PPN2012   6 PPN2012    (48)TiO,"8s2.9s1.3p4.1d1 X,3,2,0,131,3","8s2.11s1.3p4.1d1 C,3,2,0,132,6",0.5,1.0,1.0
TiO 1,4888.81,-0.9490000000000001,0.4039127924911203,47.0,2.9392915096613446,46.0,99.0,99.0,99.0,7.313,0.0,0.0,0.003,_          0.0103527          8 wl:PPN2012   8 gf:PPN2012   8 PPN2012   8 PPN2012   8 PPN2012   8 PPN2012   8 PPN2012   8 PPN2012   8 PPN2012    (49)TiO,"8s2.9s1.3p4.1d1 X,3,2,0,47,2","8s2.11s1.3p4.1d1 C,3,2,0,46,4",0.5,1.0,1.0
Mn 1,4888.8207,-0.501,5.087255118811577,4.5,7.622622850981905,3.5,1.12,1.13,1.1,7.95,-6.02,-7.77,0.065,_      A   Kurucz MnI 2007   39 wl:K07  39 gf:K07  39 K07  39 K07  39 K07  39 K07  39 K07  39 K07  39 K07    Mn,3d6.(3G).4s a2G,3d6.(a3F).4p 2F*,0.5,1.0,1.0
TiO 1,4888.8229,0.466,1.1172615759085809,108.0,3.6525104816240543,107.0,99.0,99.0,99.0,7.247999999999999,0.0,0.0,0.005,_          -0.226978          6 wl:PPN2012   6 gf:PPN2012   6 PPN2012   6 PPN2012   6 PPN2012   6 PPN2012   6 PPN2012   6 PPN2012   6 PPN2012    (48)TiO,"8s2.9s1.3p4.1d1 X,3,2,0,107,3","8s2.11s1.3p4.1d1 C,3,2,0,106,6",0.5,1.0,1.0
CH 1,4888.825,-3.3139999999999996,0.3576088606050627,3.5,2.8929742370756393,3.5,99.0,99.0,99.0,6.27,0.0,0.0,0.006,_                            37 wl:JLIY  37 gf:JLIY  37 JLIY  37 JLIY  37 JLIY  37 JLIY  37 JLIY  37 JLIY  37 JLIY    (12)CH,"1s2.2s2.3s2.1p1 X,2,1,e,3,1","1s2.2s2.3s1.1p2 A,2,2,f,3,0",0.5,1.0,1.0
TiO 1,4888.8366,-0.662,0.8091528482145779,62.0,3.3445124098262933,61.0,99.0,99.0,99.0,7.388999999999999,0.0,0.0,0.001,_                             2 wl:PPN2012   2 gf:PPN2012   2 PPN2012   2 PPN2012   2 PPN2012   2 PPN2012   2 PPN2012   2 PPN2012   2 PPN2012    (47)TiO,"8s2.9s1.3p4.1d1 a,1,2,0,62,1","8s2.11s1.3p4.1d1 f,1,2,0,61,3",0.5,1.0,1.0
Er 1,4888.84,-1.0,0.8897729650969606,6.0,3.425130530563097,7.0,1.3,1.23,0.99,0.0,0.0,0.0,0.015,_          La1 to Lu 2 Bell   1 wl:MC   1 gf:MC   1 MC   1 MC   1 MC   1 MC   1 MC   1 MC   1 MC    Er,"4f11.(4I*<15/2>).5d.<3/2>.6s2 (15/2,3/2)*",4f12.(3F<4>).5d.6s.(3D) 3[6],0.5,1.0,1.0
TiO 1,4888.8458,-0.153,1.107446094150624,87.0,3.6428007831833784,88.0,99.0,99.0,99.0,7.263999999999999,0.0,0.0,0.001,_                             6 wl:PPN2012   6 gf:PPN2012   6 PPN2012   6 PPN2012   6 PPN2012   6 PPN2012   6 PPN2012   6 PPN2012   6 PPN2012    (48)TiO,"8s2.9s1.3p4.1d1 X,3,2,0,87,5","8s2.11s1.3p4.1d1 C,3,2,0,88,8",0.5,1.0,1.0
CH 1,4888.846,-3.9139999999999997,0.3467695421412369,1.5,2.882124379955029,2.5,99.0,99.0,99.0,6.27,0.0,0.0,0.001,_                            37 wl:JLIY  37 gf:JLIY  37 JLIY  37 JLIY  37 JLIY  37 JLIY  37 JLIY  37 JLIY  37 JLIY    (12)CH,"1s2.2s2.3s2.1p1 X,2,1,e,2,1","1s2.2s2.3s1.1p2 A,2,2,e,2,0",0.5,1.0,1.0
TiO 1,4888.8673,-0.69,0.5453833864151011,64.0,3.0807417329816813,65.0,99.0,99.0,99.0,7.2989999999999995,0.0,0.0,0.003,_          0.0285022          2 wl:PPN2012   2 gf:PPN2012   2 PPN2012   2 PPN2012   2 PPN2012   2 PPN2012   2 PPN2012   2 PPN2012   2 PPN2012    (47)TiO,"8s2.9s1.3p4.1d1 X,3,2,0,65,2","8s2.11s1.3p4.1d1 C,3,2,0,66,4",0.5,1.0,1.0
TiO 1,4888.8699,0.222,1.036428627752821,91.0,3.5717708563737305,90.0,99.0,99.0,99.0,7.266,0.0,0.0,0.004,_                             6 wl:PPN2012   6 gf:PPN2012   6 PPN2012   6 PPN2012   6 PPN2012   6 PPN2012   6 PPN2012   6 PPN2012   6 PPN2012    (48)TiO,"8s2.9s1.3p4.1d1 X,3,2,0,91,4","8s2.11s1.3p4.1d1 C,3,2,0,90,7",0.5,1.0,1.0
TiO 1,4888.8884,-0.586,0.8045004527902891,109.0,3.3399835150611046,110.0,99.0,99.0,99.0,7.251,0.0,0.0,0.001,_          0.289985           4 wl:PPN2012   4 gf:PPN2012   4 PPN2012   4 PPN2012   4 PPN2012   4 PPN2012   4 PPN2012   4 PPN2012   4 PPN2012    (50)TiO,"8s2.9s1.3p4.1d1 X,3,2,0,110,0","8s2.11s1.3p4.1d1 C,3,2,0,111,2",0.5,1.0,1.0
TiO 1,4888.8914,-0.852,0.5310729443668029,63.0,3.066419574426722,64.0,99.0,99.0,99.0,7.3,0.0,0.0,0.002,_          0.0300519          4 wl:PPN2012   4 gf:PPN2012   4 PPN2012   4 PPN2012   4 PPN2012   4 PPN2012   4 PPN2012   4 PPN2012   4 PPN2012    (50)TiO,"8s2.9s1.3p4.1d1 X,3,2,0,64,2","8s2.11s1.3p4.1d1 C,3,2,0,65,4",0.5,1.0,1.0
CH 1,4888.901,-3.9139999999999997,0.3467984304592474,1.5,2.882124379955029,2.5,99.0,99.0,99.0,6.27,0.0,0.0,0.001,_                            37 wl:JLIY  37 gf:JLIY  37 JLIY  37 JLIY  37 JLIY  37 JLIY  37 JLIY  37 JLIY  37 JLIY    (12)CH,"1s2.2s2.3s2.1p1 X,2,1,f,2,1","1s2.2s2.3s1.1p2 A,2,2,f,2,0",0.5,1.0,1.0
TiO 1,4888.9134,-0.82,0.413735886878802,46.0,2.9490630762165577,45.0,99.0,99.0,99.0,7.313,0.0,0.0,0.004,_          0.0144001          2 wl:PPN2012   2 gf:PPN2012   2 PPN2012   2 PPN2012   2 PPN2012   2 PPN2012   2 PPN2012   2 PPN2012   2 PPN2012    (47)TiO,"8s2.9s1.3p4.1d1 X,3,2,0,47,2","8s2.11s1.3p4.1d1 C,3,2,0,46,4",0.5,1.0,1.0
TiO 1,4888.9177,-0.605,0.8251292039321836,39.0,3.3604466109167594,39.0,99.0,99.0,99.0,7.44,0.0,0.0,0.001,_                             6 wl:PPN2012   6 gf:PPN2012   6 PPN2012   6 PPN2012   6 PPN2012   6 PPN2012   6 PPN2012   6 PPN2012   6 PPN2012    (48)TiO,"8s2.9s1.3p4.1d1 X,3,2,+,38,6","8s2.3p4.4p1.1d1 B,3,1,-,38,10",0.5,1.0,1.0
TiO 1,4888.9266,0.059000000000000004,1.1693644346866126,82.0,3.7046773286464,82.0,99.0,99.0,99.0,7.479,0.0,0.0,0.001,_                             6 wl:PPN2012   6 gf:PPN2012   6 PPN2012   6 PPN2012   6 PPN2012   6 PPN2012   6 PPN2012   6 PPN2012   6 PPN2012    (48)TiO,"8s2.9s1.3p4.1d1 X,3,2,-,82,6","8s2.3p4.4p1.1d1 B,3,1,+,82,9",0.5,1.0,1.0
TiO 1,4888.9469,0.494,0.5675630062894703,93.0,3.1028447678172735,92.0,99.0,99.0,99.0,7.276,0.0,0.0,0.045,_          -0.0396175         6 wl:PPN2012   6 gf:PPN2012   6 PPN2012   6 PPN2012   6 PPN2012   6 PPN2012   6 PPN2012   6 PPN2012   6 PPN2012    (48)TiO,"8s2.9s1.3p4.1d1 X,3,2,0,92,0","8s2.11s1.3p4.1d1 C,3,2,0,91,2",0.5,1.0,1.0
TiO 1,4888.9649,-0.425,0.8124943835158547,110.0,3.3477969991856718,111.0,99.0,99.0,99.0,7.25,0.0,0.0,0.002,_          0.0186891          2 wl:PPN2012   2 gf:PPN2012   2 PPN2012   2 PPN2012   2 PPN2012   2 PPN2012   2 PPN2012   2 PPN2012   2 PPN2012    (47)TiO,"8s2.9s1.3p4.1d1 X,3,2,0,110,0","8s2.11s1.3p4.1d1 C,3,2,0,111,2",0.5,1.0,1.0
TiO 1,4888.9678,-0.373,0.6874773852823814,91.0,3.222824151724918,92.0,99.0,99.0,99.0,7.275,0.0,0.0,0.004,_          0.106631           3 wl:PPN2012   3 gf:PPN2012   3 PPN2012   3 PPN2012   3 PPN2012   3 PPN2012   3 PPN2012   3 PPN2012   3 PPN2012    (46)TiO,"8s2.9s1.3p4.1d1 X,3,2,0,91,1","8s2.11s1.3p4.1d1 C,3,2,0,92,3",0.5,1.0,1.0
CN 1,4888.9718,-2.574,1.2765647301657521,35.5,3.811854104323279,35.5,99.0,99.0,99.0,6.17,0.0,0.0,0.001,_                            48 wl:KCN  48 gf:KCN  48 KCN  48 KCN  48 KCN  48 KCN  48 KCN  48 KCN  48 KCN    (12)C(14)N,"3s2.4s2.1p4.5s1 X,2,0,,35,4","3s2.4s2.1p3.5s2 A,2,1,f,35,12",0.5,1.0,1.0
TiO 1,4888.9977,-0.575,0.6586607673332389,91.0,3.1939111608590816,92.0,99.0,99.0,99.0,7.275,0.0,0.0,0.003,_          -0.0494182         4 wl:PPN2012   4 gf:PPN2012   4 PPN2012   4 PPN2012   4 PPN2012   4 PPN2012   4 PPN2012   4 PPN2012   4 PPN2012    (50)TiO,"8s2.9s1.3p4.1d1 X,3,2,0,90,1","8s2.11s1.3p4.1d1 C,3,2,0,91,3",0.5,1.0,1.0
TiO 1,4888.9988,-0.985,0.40371190089595943,45.0,2.9389940715716136,44.0,99.0,99.0,99.0,7.314,0.0,0.0,0.003,_          0.0130179          4 wl:PPN2012   4 gf:PPN2012   4 PPN2012   4 PPN2012   4 PPN2012   4 PPN2012   4 PPN2012   4 PPN2012   4 PPN2012    (50)TiO,"8s2.9s1.3p4.1d1 X,3,2,0,46,2","8s2.11s1.3p4.1d1 C,3,2,0,45,4",0.5,1.0,1.0
Fe 1,4889.0007,-2.4619999999999997,2.1978663807425765,2.0,4.7331407528122105,3.0,1.82,1.32,0.83,8.21,-5.91,-7.73,0.9359999999999999,"E 0.045    Kurucz Fe I 2014   5 wl:K14  35 gf:BWL,BK   5 K14   5 K14   5 K14   5 K14   5 K14   5 K14   5 K14    Fe",3d7.(4P).4s a5P,3d7.(4F).4p y3D*,1.109174815262401,1.0,1.0
TiO 1,4889.0054,0.317,0.531691414739043,66.0,3.066851287402313,67.0,99.0,99.0,99.0,7.297999999999999,0.0,0.0,0.035,_          -0.216316          6 wl:PPN2012   6 gf:PPN2012   6 PPN2012   6 PPN2012   6 PPN2012   6 PPN2012   6 PPN2012   6 PPN2012   6 PPN2012    (48)TiO,"8s2.9s1.3p4.1d1 X,3,2,0,65,2","8s2.11s1.3p4.1d1 C,3,2,0,66,4",0.5,1.0,1.0
Ce 2,4889.0337,-2.01,1.3270406807030004,4.5,3.862297942953383,5.5,0.97,1.21,1.75,0.0,0.0,0.0,0.01,C 0.064    Ce 2: DREAM data  15 wl:PQWB  15 gf:PQWB  15 PQWB  15 PQWB  15 PQWB  15 PQWB  15 PQWB  15 PQWB  15 PQWB    Ce+,4f2.(3H).5d 4H,"4f2.(3H<6>).6p.<3/2> (6,3/2)*",0.064,1.0,2.0
TiO 1,4889.0345,0.484,1.2744365414161771,119.0,3.816692091692761,120.0,99.0,99.0,99.0,7.228,0.0,0.0,0.003,_          13.4595            6 wl:PPN2012   6 gf:PPN2012   6 PPN2012   6 PPN2012   6 PPN2012   6 PPN2012   6 PPN2012   6 PPN2012   6 PPN2012    (48)TiO,"8s2.9s1.3p4.1d1 X,3,2,0,118,3","8s2.11s1.3p4.1d1 C,3,2,0,119,6",0.5,1.0,1.0