species,wlcent,gflog,excit,j_lo,e_upp,j_up,lande_lower,lande_upper,lande,gamrad,gamqst,gamvw,depth,reference,term_lower,term_upper,error,atom_number,ionization
TiO 1,4808.7764,-0.742,0.19474202856000786,54.0,2.77231876733919,53.0,99.0,99.0,99.0,7.312,0.0,0.0,0.011000000000000001,_          0.0135010          2 wl:PPN2012   2 gf:PPN2012   2 PPN2012   2 PPN2012   2 PPN2012   2 PPN2012   2 PPN2012   2 PPN2012   2 PPN2012    (47)TiO,"8s2.9s1.3p4.1d1 X,3,2,0,53,0","8s2.11s1.3p4.1d1 C,3,2,0,52,2",0.5,1.0,1.0
TiO 1,4808.7882,-0.8740000000000001,0.1810341001177354,29.0,2.758611074466893,30.0,99.0,99.0,99.0,7.3229999999999995,0.0,0.0,0.009000000000000001,_          0.0256926          2 wl:PPN2012   2 gf:PPN2012   2 PPN2012   2 PPN2012   2 PPN2012   2 PPN2012   2 PPN2012   2 PPN2012   2 PPN2012    (47)TiO,"8s2.9s1.3p4.1d1 X,3,2,0,28,1","8s2.11s1.3p4.1d1 C,3,2,0,29,3",0.5,1.0,1.0
TiO 1,4808.7888,0.544,0.9461142236655086,104.0,3.5128523258939506,103.0,99.0,99.0,99.0,7.256,0.0,0.0,0.012,_          -20.2806           6 wl:PPN2012   6 gf:PPN2012   6 PPN2012   6 PPN2012   6 PPN2012   6 PPN2012   6 PPN2012   6 PPN2012   6 PPN2012    (48)TiO,"8s2.9s1.3p4.1d1 X,3,2,0,103,2","8s2.11s1.3p4.1d1 C,3,2,0,102,5",0.5,1.0,1.0
TiO 1,4808.7935,-0.45,0.6564417477605974,27.0,3.2340020710320347,28.0,99.0,99.0,99.0,7.306,0.0,0.0,0.004,_                             6 wl:PPN2012   6 gf:PPN2012   6 PPN2012   6 PPN2012   6 PPN2012   6 PPN2012   6 PPN2012   6 PPN2012   6 PPN2012    (48)TiO,"8s2.9s1.3p4.1d1 X,3,2,0,26,5","8s2.11s1.3p4.1d1 C,3,2,0,27,8",0.5,1.0,1.0
TiO 1,4808.7991,-0.774,0.7569276046352237,78.0,3.3347691116681033,77.0,99.0,99.0,99.0,7.2829999999999995,0.0,0.0,0.001,_          0.530109           4 wl:PPN2012   4 gf:PPN2012   4 PPN2012   4 PPN2012   4 PPN2012   4 PPN2012   4 PPN2012   4 PPN2012   4 PPN2012    (50)TiO,"8s2.9s1.3p4.1d1 X,3,2,0,77,3","8s2.11s1.3p4.1d1 C,3,2,0,76,6",0.5,1.0,1.0
TiO 1,4808.8,-0.905,0.6876836949869717,55.0,3.2652405095056203,54.0,99.0,99.0,99.0,7.297999999999999,0.0,0.0,0.001,_                             2 wl:PPN2012   2 gf:PPN2012   2 PPN2012   2 PPN2012   2 PPN2012   2 PPN2012   2 PPN2012   2 PPN2012   2 PPN2012    (47)TiO,"8s2.9s1.3p4.1d1 X,3,2,0,54,4","8s2.11s1.3p4.1d1 C,3,2,0,53,7",0.5,1.0,1.0
TiO 1,4808.805,-0.885,0.6154149056777819,10.0,3.1929691289267037,9.0,99.0,99.0,99.0,7.312,0.0,0.0,0.002,_                             6 wl:PPN2012   6 gf:PPN2012   6 PPN2012   6 PPN2012   6 PPN2012   6 PPN2012   6 PPN2012   6 PPN2012   6 PPN2012    (48)TiO,"8s2.9s1.3p4.1d1 X,3,2,0,9,5","8s2.11s1.3p4.1d1 C,3,2,0,8,8",0.5,1.0,1.0
TiO 1,4808.8079,-1.0590000000000002,0.180779473771391,26.0,2.7583688093450363,27.0,99.0,99.0,99.0,7.324,0.0,0.0,0.005,_          0.0683550          8 wl:PPN2012   8 gf:PPN2012   8 PPN2012   8 PPN2012   8 PPN2012   8 PPN2012   8 PPN2012   8 PPN2012   8 PPN2012    (49)TiO,"8s2.9s1.3p4.1d1 X,3,2,0,26,1","8s2.11s1.3p4.1d1 C,3,2,0,27,3",0.5,1.0,1.0
TiO 1,4808.809,-0.895,0.19126747061326554,25.0,2.7688609720559456,26.0,99.0,99.0,99.0,7.324,0.0,0.0,0.008,_          0.0773005          3 wl:PPN2012   3 gf:PPN2012   3 PPN2012   3 PPN2012   3 PPN2012   3 PPN2012   3 PPN2012   3 PPN2012   3 PPN2012    (46)TiO,"8s2.9s1.3p4.1d1 X,3,2,0,26,1","8s2.11s1.3p4.1d1 C,3,2,0,27,3",0.5,1.0,1.0
TiO 1,4808.8097,-1.649,0.15041430559426616,6.0,2.7279820183238725,5.0,99.0,99.0,99.0,7.329,0.0,0.0,0.001,_          0.0300363          3 wl:PPN2012   3 gf:PPN2012   3 PPN2012   3 PPN2012   3 PPN2012   3 PPN2012   3 PPN2012   3 PPN2012   3 PPN2012    (46)TiO,"8s2.9s1.3p4.1d1 X,3,2,0,7,1","8s2.11s1.3p4.1d1 C,3,2,0,6,3",0.5,1.0,1.0
TiO 1,4808.822,-1.611,0.1395485908947989,8.0,2.7171098440477173,7.0,99.0,99.0,99.0,7.331,0.0,0.0,0.002,_          0.0301973          8 wl:PPN2012   8 gf:PPN2012   8 PPN2012   8 PPN2012   8 PPN2012   8 PPN2012   8 PPN2012   8 PPN2012   8 PPN2012    (49)TiO,"8s2.9s1.3p4.1d1 X,3,2,0,8,1","8s2.11s1.3p4.1d1 C,3,2,0,7,3",0.5,1.0,1.0
TiO 1,4808.8221,-0.40299999999999997,0.12971085397339596,9.0,2.7073238953255974,8.0,99.0,99.0,99.0,7.331,0.0,0.0,0.031,_          0.126964           6 wl:PPN2012   6 gf:PPN2012   6 PPN2012   6 PPN2012   6 PPN2012   6 PPN2012   6 PPN2012   6 PPN2012   6 PPN2012    (48)TiO,"8s2.9s1.3p4.1d1 X,3,2,0,8,1","8s2.11s1.3p4.1d1 C,3,2,0,7,3",0.5,1.0,1.0
TiO 1,4808.8254,-0.7440000000000001,0.14826191512934528,4.0,2.7258052277688893,4.0,99.0,99.0,99.0,7.324,0.0,0.0,0.013000000000000001,_                             6 wl:PPN2012   6 gf:PPN2012   6 PPN2012   6 PPN2012   6 PPN2012   6 PPN2012   6 PPN2012   6 PPN2012   6 PPN2012    (48)TiO,"8s2.9s1.3p4.1d1 X,3,2,0,5,1","8s2.11s1.3p4.1d1 C,3,2,0,5,3",0.5,1.0,1.0
TiO 1,4808.8293,-0.452,0.6682878675015598,27.0,3.2458290476129075,28.0,99.0,99.0,99.0,7.306,0.0,0.0,0.003,_                             6 wl:PPN2012   6 gf:PPN2012   6 PPN2012   6 PPN2012   6 PPN2012   6 PPN2012   6 PPN2012   6 PPN2012   6 PPN2012    (48)TiO,"8s2.9s1.3p4.1d1 X,3,2,0,27,5","8s2.11s1.3p4.1d1 C,3,2,0,28,8",0.5,1.0,1.0
TiO 1,4808.835,-0.039,0.1748587943975013,20.0,2.7524370333854726,21.0,99.0,99.0,99.0,7.3260000000000005,0.0,0.0,0.059000000000000004,_          0.0748742          6 wl:PPN2012   6 gf:PPN2012   6 PPN2012   6 PPN2012   6 PPN2012   6 PPN2012   6 PPN2012   6 PPN2012   6 PPN2012    (48)TiO,"8s2.9s1.3p4.1d1 X,3,2,0,21,1","8s2.11s1.3p4.1d1 C,3,2,0,22,3",0.5,1.0,1.0
Ni 1,4808.8585,-3.443,3.7057186967177915,2.0,6.283244205226579,3.0,99.0,99.0,99.0,0.0,0.0,0.0,0.019,"ND-        Ni NBS exp.       40 wl:K08,iso:K08  40 gf:FMW  40 FMW  40 FMW  40 FMW  40 FMW  40 FMW  40 FMW  40 FMW    (64)Ni",- z3D*,- e3G,0.6,1.0,1.0
Ni 1,4808.8638,-2.8489999999999998,3.705711195673844,2.0,6.283233840147671,3.0,99.0,99.0,99.0,0.0,0.0,0.0,0.069,"ND-        Ni NBS exp.       40 wl:K08,iso:K08  40 gf:FMW  40 FMW  40 FMW  40 FMW  40 FMW  40 FMW  40 FMW  40 FMW    (62)Ni",- z3D*,- e3G,0.6,1.0,1.0
Ni 1,4808.8668,-3.353,3.7057075753352784,2.0,6.283228608014537,3.0,99.0,99.0,99.0,0.0,0.0,0.0,0.023,"ND-        Ni NBS exp.       40 wl:K08,iso:K08  40 gf:FMW  40 FMW  40 FMW  40 FMW  40 FMW  40 FMW  40 FMW  40 FMW    (61)Ni",- z3D*,- e3G,0.6,1.0,1.0
Ni 1,4808.8696,-1.9909999999999999,3.705703496255181,2.0,6.283223041124071,3.0,99.0,99.0,99.0,0.0,0.0,0.0,0.301,"ND-        Ni NBS exp.       40 wl:K08,iso:K08  40 gf:FMW  40 FMW  40 FMW  40 FMW  40 FMW  40 FMW  40 FMW  40 FMW    (60)Ni",- z3D*,- e3G,0.6,1.0,1.0
Ni 1,4808.874,-1.374,3.705698834449356,2.0,6.283215986423235,3.0,1.04,0.77,0.5,8.22,-5.58,-7.232,0.54,_          Kurucz NiI 2008   33 wl:K08  33 gf:K08  33 K08  33 K08  33 K08  33 K08  33 K08  25 BPM  33 K08    Ni,3d9.(2D).4p z3D*,3d9.(2D<3/2>).4d 2[7/2],0.5,1.0,1.0
Ni 1,4808.877,-1.577,3.7056960324064936,2.0,6.2832116097810635,3.0,99.0,99.0,99.0,0.0,0.0,0.0,0.466,"ND-        Ni NBS exp.       40 wl:K08,iso:K08  40 gf:FMW  40 FMW  40 FMW  40 FMW  40 FMW  40 FMW  40 FMW  40 FMW    (58)Ni",- z3D*,- e3G,0.6,1.0,1.0
TiO 1,4808.88,-0.861,0.7035000366993225,55.0,3.281014027076165,54.0,99.0,99.0,99.0,7.297999999999999,0.0,0.0,0.001,_                             3 wl:PPN2012   3 gf:PPN2012   3 PPN2012   3 PPN2012   3 PPN2012   3 PPN2012   3 PPN2012   3 PPN2012   3 PPN2012    (46)TiO,"8s2.9s1.3p4.1d1 X,3,2,0,55,4","8s2.11s1.3p4.1d1 C,3,2,0,54,7",0.5,1.0,1.0
TiO 1,4808.8833,-0.802,0.20174996255677236,31.0,2.7793032931194723,32.0,99.0,99.0,99.0,7.322,0.0,0.0,0.009000000000000001,_          0.0766531          3 wl:PPN2012   3 gf:PPN2012   3 PPN2012   3 PPN2012   3 PPN2012   3 PPN2012   3 PPN2012   3 PPN2012   3 PPN2012    (46)TiO,"8s2.9s1.3p4.1d1 X,3,2,0,31,1","8s2.11s1.3p4.1d1 C,3,2,0,32,3",0.5,1.0,1.0
TiO 1,4808.8888,-1.199,0.14791814414501983,13.0,2.725445177659436,12.0,99.0,99.0,99.0,7.329,0.0,0.0,0.004,_          0.0331794          3 wl:PPN2012   3 gf:PPN2012   3 PPN2012   3 PPN2012   3 PPN2012   3 PPN2012   3 PPN2012   3 PPN2012   3 PPN2012    (46)TiO,"8s2.9s1.3p4.1d1 X,3,2,0,13,1","8s2.11s1.3p4.1d1 C,3,2,0,12,3",0.5,1.0,1.0
TiO 1,4808.9018,-0.5710000000000001,0.36624223982908033,71.0,2.9437939957924724,72.0,99.0,99.0,99.0,7.297000000000001,0.0,0.0,0.008,_          0.0922251          3 wl:PPN2012   3 gf:PPN2012   3 PPN2012   3 PPN2012   3 PPN2012   3 PPN2012   3 PPN2012   3 PPN2012   3 PPN2012    (46)TiO,"8s2.9s1.3p4.1d1 X,3,2,0,72,0","8s2.11s1.3p4.1d1 C,3,2,0,73,2",0.5,1.0,1.0
TiO 1,4808.9227,-0.976,0.18414662420786496,23.0,2.761678567496501,24.0,99.0,99.0,99.0,7.325,0.0,0.0,0.006999999999999999,_          0.0762462          2 wl:PPN2012   2 gf:PPN2012   2 PPN2012   2 PPN2012   2 PPN2012   2 PPN2012   2 PPN2012   2 PPN2012   2 PPN2012    (47)TiO,"8s2.9s1.3p4.1d1 X,3,2,0,24,1","8s2.11s1.3p4.1d1 C,3,2,0,25,3",0.5,1.0,1.0
TiO 1,4808.9348,-0.833,0.14892723912980949,5.0,2.7264118824471106,5.0,99.0,99.0,99.0,7.329,0.0,0.0,0.01,_                             6 wl:PPN2012   6 gf:PPN2012   6 PPN2012   6 PPN2012   6 PPN2012   6 PPN2012   6 PPN2012   6 PPN2012   6 PPN2012    (48)TiO,"8s2.9s1.3p4.1d1 X,3,2,0,6,1","8s2.11s1.3p4.1d1 C,3,2,0,6,3",0.5,1.0,1.0
TiO 1,4808.9375,-0.754,0.34594753931042965,71.0,2.9234600914705813,72.0,99.0,99.0,99.0,7.297000000000001,0.0,0.0,0.006,_          0.0549214          8 wl:PPN2012   8 gf:PPN2012   8 PPN2012   8 PPN2012   8 PPN2012   8 PPN2012   8 PPN2012   8 PPN2012   8 PPN2012    (49)TiO,"8s2.9s1.3p4.1d1 X,3,2,0,71,0","8s2.11s1.3p4.1d1 C,3,2,0,72,2",0.5,1.0,1.0
MgH 1,4808.9416,-1.9380000000000002,0.3751133215564877,6.5,2.9525942701447043,7.5,99.0,99.0,99.0,7.06,0.0,0.0,0.01,_                            18 wl:KMGH  18 gf:KMGH  18 KMGH  18 KMGH  18 KMGH  18 KMGH  18 KMGH  18 KMGH  18 KMGH    (24)MgH,"4s2.5s1 X,2,0,e,6,2","4s1.5s2/4s2.7s1/4s2.6s1 B,2,0,e,7,2",0.5,1.0,1.0
MgH 1,4808.9416,-2.001,0.3751133215564877,5.5,2.9525942701447043,6.5,99.0,99.0,99.0,7.06,0.0,0.0,0.008,_                            18 wl:KMGH  18 gf:KMGH  18 KMGH  18 KMGH  18 KMGH  18 KMGH  18 KMGH  18 KMGH  18 KMGH    (24)MgH,"4s2.5s1 X,2,0,f,6,2","4s1.5s2/4s2.7s1/4s2.6s1 B,2,0,f,7,2",0.5,1.0,1.0
TiO 1,4808.9416,-0.44,0.9655728863421984,112.0,3.5429031197399703,111.0,99.0,99.0,99.0,7.247000000000001,0.0,0.0,0.001,_          -0.281317          3 wl:PPN2012   3 gf:PPN2012   3 PPN2012   3 PPN2012   3 PPN2012   3 PPN2012   3 PPN2012   3 PPN2012   3 PPN2012    (46)TiO,"8s2.9s1.3p4.1d1 X,3,2,0,112,1","8s2.11s1.3p4.1d1 C,3,2,0,111,4",0.5,1.0,1.0
TiO 1,4808.9423,0.106,0.18855668011977866,28.0,2.7660755430755817,29.0,99.0,99.0,99.0,7.324,0.0,0.0,0.078,_          0.0713460          6 wl:PPN2012   6 gf:PPN2012   6 PPN2012   6 PPN2012   6 PPN2012   6 PPN2012   6 PPN2012   6 PPN2012   6 PPN2012    (48)TiO,"8s2.9s1.3p4.1d1 X,3,2,0,28,1","8s2.11s1.3p4.1d1 C,3,2,0,29,3",0.5,1.0,1.0
TiO 1,4808.9482,-1.244,0.16686648786492267,17.0,2.744383515854603,18.0,99.0,99.0,99.0,7.327000000000001,0.0,0.0,0.004,_          0.0738132          8 wl:PPN2012   8 gf:PPN2012   8 PPN2012   8 PPN2012   8 PPN2012   8 PPN2012   8 PPN2012   8 PPN2012   8 PPN2012    (49)TiO,"8s2.9s1.3p4.1d1 X,3,2,0,18,1","8s2.11s1.3p4.1d1 C,3,2,0,19,3",0.5,1.0,1.0
TiO 1,4808.9496,0.168,1.267027617727955,41.0,3.8445042268692604,42.0,99.0,99.0,99.0,7.357,0.0,0.0,0.001,_                             6 wl:PPN2012   6 gf:PPN2012   6 PPN2012   6 PPN2012   6 PPN2012   6 PPN2012   6 PPN2012   6 PPN2012   6 PPN2012    (48)TiO,"8s2.9s1.3p4.1d1 a,1,2,0,41,6","8s2.11s1.3p4.1d1 f,1,2,0,42,9",0.5,1.0,1.0
TiO 1,4808.955,-0.369,0.14238709751009976,10.0,2.7198774193036455,9.0,99.0,99.0,99.0,7.33,0.0,0.0,0.032,_          0.0308973          6 wl:PPN2012   6 gf:PPN2012   6 PPN2012   6 PPN2012   6 PPN2012   6 PPN2012   6 PPN2012   6 PPN2012   6 PPN2012    (48)TiO,"8s2.9s1.3p4.1d1 X,3,2,0,10,1","8s2.11s1.3p4.1d1 C,3,2,0,9,3",0.5,1.0,1.0
TiO 1,4808.9616,-1.31,0.1328121574936545,11.0,2.7103411747552304,10.0,99.0,99.0,99.0,7.33,0.0,0.0,0.004,_          0.109629           2 wl:PPN2012   2 gf:PPN2012   2 PPN2012   2 PPN2012   2 PPN2012   2 PPN2012   2 PPN2012   2 PPN2012   2 PPN2012    (47)TiO,"8s2.9s1.3p4.1d1 X,3,2,0,10,1","8s2.11s1.3p4.1d1 C,3,2,0,9,3",0.5,1.0,1.0
La 2,4808.9696,-1.78,0.2349523743221784,1.0,2.8124203401531256,0.0,0.5,99.0,99.0,0.0,0.0,0.0,0.743,"E 0.03     Wisconsin REE ex  11 wl:LBS  11 gf:LBS  11 LBS  11 LBS  11 LBS  11 LBS  11 LBS  11 LBS  11 LBS   hfs:HHW,K16 La+",5d.6s a3D,4f.5d z3P*,1.0715193052376064,1.0,2.0
TiO 1,4808.9743,-1.109,0.16187075540099963,24.0,2.7393511212634882,25.0,99.0,99.0,99.0,7.325,0.0,0.0,0.005,_          0.0316111          4 wl:PPN2012   4 gf:PPN2012   4 PPN2012   4 PPN2012   4 PPN2012   4 PPN2012   4 PPN2012   4 PPN2012   4 PPN2012    (50)TiO,"8s2.9s1.3p4.1d1 X,3,2,0,23,1","8s2.11s1.3p4.1d1 C,3,2,0,24,3",0.5,1.0,1.0
S 1,4808.9814,-2.69,8.04550641593425,0.0,10.622966039240502,1.0,0.0,0.5,0.5,8.35,-4.98,-7.42,0.002,_      A   Kurucz S I 2004   45 wl:K04  45 gf:K04  45 K04  45 K04  45 K04  45 K04  45 K04  45 K04  45 K04    S,3s2.3p3.(4S*).4p 3P,3s2.3p3.(2D*).5s 3D*,0.5,1.0,1.0
TiO 1,4808.9865,-1.545,0.15224923452156483,9.0,2.729745321580293,10.0,99.0,99.0,99.0,7.329,0.0,0.0,0.002,_          0.0730174          4 wl:PPN2012   4 gf:PPN2012   4 PPN2012   4 PPN2012   4 PPN2012   4 PPN2012   4 PPN2012   4 PPN2012   4 PPN2012    (50)TiO,"8s2.9s1.3p4.1d1 X,3,2,0,10,1","8s2.11s1.3p4.1d1 C,3,2,0,11,3",0.5,1.0,1.0
TiO 1,4808.9921,-1.4969999999999999,0.15356618226867277,10.0,2.7310591821208834,11.0,99.0,99.0,99.0,7.327999999999999,0.0,0.0,0.002,_          0.0729260          4 wl:PPN2012   4 gf:PPN2012   4 PPN2012   4 PPN2012   4 PPN2012   4 PPN2012   4 PPN2012   4 PPN2012   4 PPN2012    (50)TiO,"8s2.9s1.3p4.1d1 X,3,2,0,11,1","8s2.11s1.3p4.1d1 C,3,2,0,12,3",0.5,1.0,1.0
TiO 1,4808.9942,-0.8009999999999999,0.1896920778065311,31.0,2.7671586690246808,32.0,99.0,99.0,99.0,7.322,0.0,0.0,0.01,_          0.0257530          3 wl:PPN2012   3 gf:PPN2012   3 PPN2012   3 PPN2012   3 PPN2012   3 PPN2012   3 PPN2012   3 PPN2012   3 PPN2012    (46)TiO,"8s2.9s1.3p4.1d1 X,3,2,0,30,1","8s2.11s1.3p4.1d1 C,3,2,0,31,3",0.5,1.0,1.0
TiO 1,4808.9984,-0.889,0.19908027282474686,53.0,2.7765725411701925,52.0,99.0,99.0,99.0,7.313,0.0,0.0,0.008,_          0.0778735          8 wl:PPN2012   8 gf:PPN2012   8 PPN2012   8 PPN2012   8 PPN2012   8 PPN2012   8 PPN2012   8 PPN2012   8 PPN2012    (49)TiO,"8s2.9s1.3p4.1d1 X,3,2,0,53,0","8s2.11s1.3p4.1d1 C,3,2,0,52,2",0.5,1.0,1.0
TiO 1,4809.0032,0.114,1.2386559294698536,87.0,3.816103910659963,86.0,99.0,99.0,99.0,7.256,0.0,0.0,0.001,_                             6 wl:PPN2012   6 gf:PPN2012   6 PPN2012   6 PPN2012   6 PPN2012   6 PPN2012   6 PPN2012   6 PPN2012   6 PPN2012    (48)TiO,"8s2.9s1.3p4.1d1 X,3,2,0,88,6","8s2.11s1.3p4.1d1 C,3,2,0,87,10",0.5,1.0,1.0
TiO 1,4809.0038,-1.057,0.16895496447604774,26.0,2.746417600598298,27.0,99.0,99.0,99.0,7.324,0.0,0.0,0.006,_          0.0281164          8 wl:PPN2012   8 gf:PPN2012   8 PPN2012   8 PPN2012   8 PPN2012   8 PPN2012   8 PPN2012   8 PPN2012   8 PPN2012    (49)TiO,"8s2.9s1.3p4.1d1 X,3,2,0,25,1","8s2.11s1.3p4.1d1 C,3,2,0,26,3",0.5,1.0,1.0
TiO 1,4809.0049,-1.601,0.15106392079691092,8.0,2.728550237900878,9.0,99.0,99.0,99.0,7.329,0.0,0.0,0.002,_          0.0731709          4 wl:PPN2012   4 gf:PPN2012   4 PPN2012   4 PPN2012   4 PPN2012   4 PPN2012   4 PPN2012   4 PPN2012   4 PPN2012    (50)TiO,"8s2.9s1.3p4.1d1 X,3,2,0,9,1","8s2.11s1.3p4.1d1 C,3,2,0,10,3",0.5,1.0,1.0
La 2,4809.0084,-1.8769999999999998,0.23497317019162006,1.0,2.8124203401531256,0.0,0.5,99.0,99.0,0.0,0.0,0.0,0.743,"E 0.03     Wisconsin REE ex  11 wl:LBS  11 gf:LBS  11 LBS  11 LBS  11 LBS  11 LBS  11 LBS  11 LBS  11 LBS   hfs:HHW,K16 La+",5d.6s a3D,4f.5d z3P*,1.0715193052376064,1.0,2.0
TiO 1,4809.0171,-1.043,0.6361890654864694,8.0,3.2136296076247306,7.0,99.0,99.0,99.0,7.312,0.0,0.0,0.001,_                             6 wl:PPN2012   6 gf:PPN2012   6 PPN2012   6 PPN2012   6 PPN2012   6 PPN2012   6 PPN2012   6 PPN2012   6 PPN2012    (48)TiO,"8s2.9s1.3p4.1d1 X,3,2,0,9,5","8s2.11s1.3p4.1d1 C,3,2,0,8,8",0.5,1.0,1.0
CN 1,4809.0205,-2.9539999999999997,1.0546790148314855,15.5,3.632117684808365,15.5,99.0,99.0,99.0,7.18,0.0,0.0,0.001,_                            28 wl:BRW  28 gf:BRW  28 BRW  28 BRW  28 BRW  28 BRW  28 BRW  28 BRW  28 BRW    (12)C(14)N,"3s2.4s2.1p4.5s1 X,2,0,f,16,4","3s2.4s2.1p3.5s2 A,2,1,e,16,12",0.5,1.0,1.0
TiO 1,4809.0217,-1.453,0.15501472684297551,11.0,2.732491819522651,12.0,99.0,99.0,99.0,7.327999999999999,0.0,0.0,0.003,_          0.0728941          4 wl:PPN2012   4 gf:PPN2012   4 PPN2012   4 PPN2012   4 PPN2012   4 PPN2012   4 PPN2012   4 PPN2012   4 PPN2012    (50)TiO,"8s2.9s1.3p4.1d1 X,3,2,0,12,1","8s2.11s1.3p4.1d1 C,3,2,0,13,3",0.5,1.0,1.0
TiO 1,4809.0321,-0.772,0.32965704483169395,71.0,2.9070797952376184,72.0,99.0,99.0,99.0,7.297000000000001,0.0,0.0,0.006,_          -0.0181758         4 wl:PPN2012   4 gf:PPN2012   4 PPN2012   4 PPN2012   4 PPN2012   4 PPN2012   4 PPN2012   4 PPN2012   4 PPN2012    (50)TiO,"8s2.9s1.3p4.1d1 X,3,2,0,70,0","8s2.11s1.3p4.1d1 C,3,2,0,71,2",0.5,1.0,1.0
TiO 1,4809.0344,-0.708,0.43661073574206527,12.0,3.0140419542686767,11.0,99.0,99.0,99.0,7.412999999999999,0.0,0.0,0.005,_                             6 wl:PPN2012   6 gf:PPN2012   6 PPN2012   6 PPN2012   6 PPN2012   6 PPN2012   6 PPN2012   6 PPN2012   6 PPN2012    (48)TiO,"8s2.9s1.3p4.1d1 a,1,2,0,12,0","8s2.11s1.3p4.1d1 f,1,2,0,11,2",0.5,1.0,1.0
TiO 1,4809.0374,0.423,1.326205895101434,90.0,3.903635514231898,89.0,99.0,99.0,99.0,7.351,0.0,0.0,0.002,_                             6 wl:PPN2012   6 gf:PPN2012   6 PPN2012   6 PPN2012   6 PPN2012   6 PPN2012   6 PPN2012   6 PPN2012   6 PPN2012    (48)TiO,"8s2.9s1.3p4.1d1 a,1,2,0,90,3","8s2.11s1.3p4.1d1 f,1,2,0,89,6",0.5,1.0,1.0
La 2,4809.0394,-2.002,0.23498975667357339,1.0,2.8124203401531256,0.0,0.5,99.0,99.0,0.0,0.0,0.0,0.743,"E 0.03     Wisconsin REE ex  11 wl:LBS  11 gf:LBS  11 LBS  11 LBS  11 LBS  11 LBS  11 LBS  11 LBS  11 LBS   hfs:HHW,K16 La+",5d.6s a3D,4f.5d z3P*,1.0715193052376064,1.0,2.0
Ce 2,4809.041,-1.77,1.2470610785831682,6.5,3.8244887139664727,7.5,1.11,1.21,1.53,0.0,0.0,0.0,0.023,C 0.297    Ce 2: DREAM data  15 wl:PQWB  15 gf:PQWB  15 PQWB  15 PQWB  15 PQWB  15 PQWB  15 PQWB  15 PQWB  15 PQWB    Ce+,4f2.(3H).5d 4I,"4f2.(3H<6>).6p.<3/2> (6,3/2)*",0.297,1.0,2.0
TiO 1,4809.0473,-1.6669999999999998,0.15001025349313077,7.0,2.72747393108264,8.0,99.0,99.0,99.0,7.33,0.0,0.0,0.002,_          0.0733888          4 wl:PPN2012   4 gf:PPN2012   4 PPN2012   4 PPN2012   4 PPN2012   4 PPN2012   4 PPN2012   4 PPN2012   4 PPN2012    (50)TiO,"8s2.9s1.3p4.1d1 X,3,2,0,8,1","8s2.11s1.3p4.1d1 C,3,2,0,9,3",0.5,1.0,1.0
TiO 1,4809.0511,0.115,1.2337634386471639,88.0,3.811185705514718,87.0,99.0,99.0,99.0,7.256,0.0,0.0,0.002,_                             6 wl:PPN2012   6 gf:PPN2012   6 PPN2012   6 PPN2012   6 PPN2012   6 PPN2012   6 PPN2012   6 PPN2012   6 PPN2012    (48)TiO,"8s2.9s1.3p4.1d1 X,3,2,0,88,6","8s2.11s1.3p4.1d1 C,3,2,0,87,10",0.5,1.0,1.0
TiO 1,4809.0682,-0.907,0.14972559817415912,6.0,2.7271386778126807,6.0,99.0,99.0,99.0,7.33,0.0,0.0,0.009000000000000001,_                             6 wl:PPN2012   6 gf:PPN2012   6 PPN2012   6 PPN2012   6 PPN2012   6 PPN2012   6 PPN2012   6 PPN2012   6 PPN2012    (48)TiO,"8s2.9s1.3p4.1d1 X,3,2,0,7,1","8s2.11s1.3p4.1d1 C,3,2,0,7,3",0.5,1.0,1.0
TiO 1,4809.0752,-1.4140000000000001,0.15659484344763355,12.0,2.7340432337855947,13.0,99.0,99.0,99.0,7.327999999999999,0.0,0.0,0.003,_          0.0729193          4 wl:PPN2012   4 gf:PPN2012   4 PPN2012   4 PPN2012   4 PPN2012   4 PPN2012   4 PPN2012   4 PPN2012   4 PPN2012    (50)TiO,"8s2.9s1.3p4.1d1 X,3,2,0,13,1","8s2.11s1.3p4.1d1 C,3,2,0,14,3",0.5,1.0,1.0
Ce 2,4809.1024,-1.71,1.4998710564346311,3.5,4.077265836005606,2.5,1.12,1.1,1.15,0.0,0.0,0.0,0.011000000000000001,C-0.065    Ce 2: DREAM data  15 wl:PQWB  15 gf:PQWB  15 PQWB  15 PQWB  15 PQWB  15 PQWB  15 PQWB  15 PQWB  15 PQWB    Ce+,4f2.(3F).5d 4f2.(3F).5d,"4f2.(3F<3>).6p.<3/2> (3,3/2)*",0.065,1.0,2.0