species,wlcent,gflog,excit,j_lo,e_upp,j_up,lande_lower,lande_upper,lande,gamrad,gamqst,gamvw,depth,reference,term_lower,term_upper,error,atom_number,ionization
TiO 1,4809.1026,-1.689,0.1552855455255095,17.0,2.7326802755028057,17.0,99.0,99.0,99.0,7.327000000000001,0.0,0.0,0.001,_                             6 wl:PPN2012   6 gf:PPN2012   6 PPN2012   6 PPN2012   6 PPN2012   6 PPN2012   6 PPN2012   6 PPN2012   6 PPN2012    (48)TiO,"8s2.9s1.3p4.1d1 X,3,2,0,17,1","8s2.11s1.3p4.1d1 C,3,2,0,17,3",0.5,1.0,1.0
TiO 1,4809.1073,0.10800000000000001,0.17664562985460125,28.0,2.754051803573324,29.0,99.0,99.0,99.0,7.324,0.0,0.0,0.08199999999999999,_          0.0261479          6 wl:PPN2012   6 gf:PPN2012   6 PPN2012   6 PPN2012   6 PPN2012   6 PPN2012   6 PPN2012   6 PPN2012   6 PPN2012    (48)TiO,"8s2.9s1.3p4.1d1 X,3,2,0,27,1","8s2.11s1.3p4.1d1 C,3,2,0,28,3",0.5,1.0,1.0
TiO 1,4809.1084,-0.018000000000000002,0.17764957949519586,21.0,2.7550814923333133,22.0,99.0,99.0,99.0,7.325,0.0,0.0,0.062,_          0.0753003          6 wl:PPN2012   6 gf:PPN2012   6 PPN2012   6 PPN2012   6 PPN2012   6 PPN2012   6 PPN2012   6 PPN2012   6 PPN2012    (48)TiO,"8s2.9s1.3p4.1d1 X,3,2,0,22,1","8s2.11s1.3p4.1d1 C,3,2,0,23,3",0.5,1.0,1.0
TiO 1,4809.1137,-1.7469999999999999,0.14908824500864418,6.0,2.726516525109776,7.0,99.0,99.0,99.0,7.33,0.0,0.0,0.001,_          0.0736738          4 wl:PPN2012   4 gf:PPN2012   4 PPN2012   4 PPN2012   4 PPN2012   4 PPN2012   4 PPN2012   4 PPN2012   4 PPN2012    (50)TiO,"8s2.9s1.3p4.1d1 X,3,2,0,7,1","8s2.11s1.3p4.1d1 C,3,2,0,8,3",0.5,1.0,1.0
TiO 1,4809.1262,-0.485,0.9607632913539372,112.0,3.537994585362128,111.0,99.0,99.0,99.0,7.247000000000001,0.0,0.0,0.001,_          -0.281317          2 wl:PPN2012   2 gf:PPN2012   2 PPN2012   2 PPN2012   2 PPN2012   2 PPN2012   2 PPN2012   2 PPN2012   2 PPN2012    (47)TiO,"8s2.9s1.3p4.1d1 X,3,2,0,112,1","8s2.11s1.3p4.1d1 C,3,2,0,111,4",0.5,1.0,1.0
TiO 1,4809.1263,-1.7380000000000002,0.12594738804970873,6.0,2.7034136817057846,5.0,99.0,99.0,99.0,7.335,0.0,0.0,0.001,_          0.157236           4 wl:PPN2012   4 gf:PPN2012   4 PPN2012   4 PPN2012   4 PPN2012   4 PPN2012   4 PPN2012   4 PPN2012   4 PPN2012    (50)TiO,"8s2.9s1.3p4.1d1 X,3,2,0,5,1","8s2.11s1.3p4.1d1 C,3,2,0,4,3",0.5,1.0,1.0
TiO 1,4809.1315,-0.485,0.6737000008926862,25.0,3.2510791584547802,26.0,99.0,99.0,99.0,7.306,0.0,0.0,0.003,_                             6 wl:PPN2012   6 gf:PPN2012   6 PPN2012   6 PPN2012   6 PPN2012   6 PPN2012   6 PPN2012   6 PPN2012   6 PPN2012    (48)TiO,"8s2.9s1.3p4.1d1 X,3,2,0,26,5","8s2.11s1.3p4.1d1 C,3,2,0,27,8",0.5,1.0,1.0
TiO 1,4809.1365,-1.094,0.17687015283779992,25.0,2.7542825381648157,26.0,99.0,99.0,99.0,7.325,0.0,0.0,0.005,_          0.0670443          4 wl:PPN2012   4 gf:PPN2012   4 PPN2012   4 PPN2012   4 PPN2012   4 PPN2012   4 PPN2012   4 PPN2012   4 PPN2012    (50)TiO,"8s2.9s1.3p4.1d1 X,3,2,0,25,1","8s2.11s1.3p4.1d1 C,3,2,0,26,3",0.5,1.0,1.0
Fe 1,4809.1368,-2.241,3.694597165423684,4.0,6.271973471349235,3.0,0.98,1.02,0.92,7.78,-6.14,-7.8,0.6729999999999999,_          Kurucz Fe I 2014   5 wl:K14   5 gf:K14   5 K14   5 K14   5 K14   5 K14   5 K14   5 K14   5 K14    Fe,3d6.4s2 b1G2,3d7.(2G).4p z1F*,0.5,1.0,1.0
TiO 1,4809.1446,0.401,1.2659953252998186,73.0,3.843367539746854,72.0,99.0,99.0,99.0,7.356,0.0,0.0,0.003,_                             6 wl:PPN2012   6 gf:PPN2012   6 PPN2012   6 PPN2012   6 PPN2012   6 PPN2012   6 PPN2012   6 PPN2012   6 PPN2012    (48)TiO,"8s2.9s1.3p4.1d1 a,1,2,0,73,4","8s2.11s1.3p4.1d1 f,1,2,0,72,7",0.5,1.0,1.0
TiO 1,4809.1472,-1.219,0.16924714563580587,18.0,2.7466576340046003,19.0,99.0,99.0,99.0,7.3260000000000005,0.0,0.0,0.004,_          0.0741282          8 wl:PPN2012   8 gf:PPN2012   8 PPN2012   8 PPN2012   8 PPN2012   8 PPN2012   8 PPN2012   8 PPN2012   8 PPN2012    (49)TiO,"8s2.9s1.3p4.1d1 X,3,2,0,19,1","8s2.11s1.3p4.1d1 C,3,2,0,20,3",0.5,1.0,1.0
Cr 1,4809.1495,-3.4389999999999996,3.9795577334895205,6.0,6.556927220284211,5.0,1.0,1.03,0.91,7.64,-6.2,-7.79,0.002,_          Kurucz Cr I 2016  10 wl:K16  10 gf:K16  10 K16  10 K16  10 K16  10 K16  10 K16  10 K16  10 K16    Cr,3d4.4s2 a1I,3d4.(a1G).4s.4p.(3P*) x3H*,0.5,1.0,1.0
TiO 1,4809.1524,-1.696,0.1381823594291966,7.0,2.715566488757609,6.0,99.0,99.0,99.0,7.332000000000001,0.0,0.0,0.001,_          0.0301108          4 wl:PPN2012   4 gf:PPN2012   4 PPN2012   4 PPN2012   4 PPN2012   4 PPN2012   4 PPN2012   4 PPN2012   4 PPN2012    (50)TiO,"8s2.9s1.3p4.1d1 X,3,2,0,7,1","8s2.11s1.3p4.1d1 C,3,2,0,6,3",0.5,1.0,1.0
TiO 1,4809.1528,-1.379,0.15830650728580736,13.0,2.7357134249097146,14.0,99.0,99.0,99.0,7.327999999999999,0.0,0.0,0.003,_          0.0729990          4 wl:PPN2012   4 gf:PPN2012   4 PPN2012   4 PPN2012   4 PPN2012   4 PPN2012   4 PPN2012   4 PPN2012   4 PPN2012    (50)TiO,"8s2.9s1.3p4.1d1 X,3,2,0,14,1","8s2.11s1.3p4.1d1 C,3,2,0,15,3",0.5,1.0,1.0
TiO 1,4809.1558,0.38299999999999995,0.7878942573495352,79.0,3.3641341489179157,78.0,99.0,99.0,99.0,7.282,0.0,0.0,0.015,_          -2.10263           6 wl:PPN2012   6 gf:PPN2012   6 PPN2012   6 PPN2012   6 PPN2012   6 PPN2012   6 PPN2012   6 PPN2012   6 PPN2012    (48)TiO,"8s2.9s1.3p4.1d1 X,3,2,0,79,3","8s2.11s1.3p4.1d1 C,3,2,0,78,6",0.5,1.0,1.0
TiO 1,4809.1589,-0.861,0.19695694425571295,30.0,2.774361530976708,31.0,99.0,99.0,99.0,7.3229999999999995,0.0,0.0,0.008,_          0.0747839          2 wl:PPN2012   2 gf:PPN2012   2 PPN2012   2 PPN2012   2 PPN2012   2 PPN2012   2 PPN2012   2 PPN2012   2 PPN2012    (47)TiO,"8s2.9s1.3p4.1d1 X,3,2,0,30,1","8s2.11s1.3p4.1d1 C,3,2,0,31,3",0.5,1.0,1.0
MgH 1,4809.1597,-1.7819999999999998,0.20638223534581177,5.5,2.783746266835814,4.5,99.0,99.0,99.0,7.39,0.0,0.0,0.026000000000000002,_                            18 wl:KMGH  18 gf:KMGH  18 KMGH  18 KMGH  18 KMGH  18 KMGH  18 KMGH  18 KMGH  18 KMGH    (24)MgH,"4s2.5s1 X,2,0,f,6,1","4s2.2p1 A,2,1,f,5,2",0.5,1.0,1.0
TiO 1,4809.1657,-1.59,0.12820297056218402,8.0,2.705636966334819,7.0,99.0,99.0,99.0,7.332000000000001,0.0,0.0,0.002,_          0.136472           8 wl:PPN2012   8 gf:PPN2012   8 PPN2012   8 PPN2012   8 PPN2012   8 PPN2012   8 PPN2012   8 PPN2012   8 PPN2012    (49)TiO,"8s2.9s1.3p4.1d1 X,3,2,0,7,1","8s2.11s1.3p4.1d1 C,3,2,0,6,3",0.5,1.0,1.0
TiO 1,4809.1688,-1.281,0.14579331536719656,12.0,2.7231698196674645,11.0,99.0,99.0,99.0,7.329,0.0,0.0,0.004,_          0.0322621          2 wl:PPN2012   2 gf:PPN2012   2 PPN2012   2 PPN2012   2 PPN2012   2 PPN2012   2 PPN2012   2 PPN2012   2 PPN2012    (47)TiO,"8s2.9s1.3p4.1d1 X,3,2,0,12,1","8s2.11s1.3p4.1d1 C,3,2,0,11,3",0.5,1.0,1.0
TiO 1,4809.1738,-1.192,0.13648454462588017,13.0,2.7138917102181823,12.0,99.0,99.0,99.0,7.329,0.0,0.0,0.005,_          0.0944486          3 wl:PPN2012   3 gf:PPN2012   3 PPN2012   3 PPN2012   3 PPN2012   3 PPN2012   3 PPN2012   3 PPN2012   3 PPN2012    (46)TiO,"8s2.9s1.3p4.1d1 X,3,2,0,12,1","8s2.11s1.3p4.1d1 C,3,2,0,11,3",0.5,1.0,1.0
TiO 1,4809.1772,-1.1640000000000001,0.53030316367997,39.0,3.1076578343630636,40.0,99.0,99.0,99.0,7.405,0.0,0.0,0.001,_                             2 wl:PPN2012   2 gf:PPN2012   2 PPN2012   2 PPN2012   2 PPN2012   2 PPN2012   2 PPN2012   2 PPN2012   2 PPN2012    (47)TiO,"8s2.9s1.3p4.1d1 a,1,2,0,39,0","8s2.11s1.3p4.1d1 f,1,2,0,40,2",0.5,1.0,1.0
TiO 1,4809.1783,-0.191,0.5195543660787171,37.0,3.0969084044424036,38.0,99.0,99.0,99.0,7.406000000000001,0.0,0.0,0.011000000000000001,_                             6 wl:PPN2012   6 gf:PPN2012   6 PPN2012   6 PPN2012   6 PPN2012   6 PPN2012   6 PPN2012   6 PPN2012   6 PPN2012    (48)TiO,"8s2.9s1.3p4.1d1 a,1,2,0,37,0","8s2.11s1.3p4.1d1 f,1,2,0,38,2",0.5,1.0,1.0
TiO 1,4809.18,-0.61,0.3588950478727783,72.0,2.936276957884056,73.0,99.0,99.0,99.0,7.296,0.0,0.0,0.008,_          0.0535376          2 wl:PPN2012   2 gf:PPN2012   2 PPN2012   2 PPN2012   2 PPN2012   2 PPN2012   2 PPN2012   2 PPN2012   2 PPN2012    (47)TiO,"8s2.9s1.3p4.1d1 X,3,2,0,72,0","8s2.11s1.3p4.1d1 C,3,2,0,73,2",0.5,1.0,1.0
TiO 1,4809.1888,-0.855,0.6282037516626281,11.0,3.205552285127947,10.0,99.0,99.0,99.0,7.311,0.0,0.0,0.002,_                             6 wl:PPN2012   6 gf:PPN2012   6 PPN2012   6 PPN2012   6 PPN2012   6 PPN2012   6 PPN2012   6 PPN2012   6 PPN2012    (48)TiO,"8s2.9s1.3p4.1d1 X,3,2,0,11,5","8s2.11s1.3p4.1d1 C,3,2,0,10,8",0.5,1.0,1.0
TiO 1,4809.1919,0.278,1.2148539019810691,52.0,3.792200749261302,51.0,99.0,99.0,99.0,7.36,0.0,0.0,0.002,_                             6 wl:PPN2012   6 gf:PPN2012   6 PPN2012   6 PPN2012   6 PPN2012   6 PPN2012   6 PPN2012   6 PPN2012   6 PPN2012    (48)TiO,"8s2.9s1.3p4.1d1 a,1,2,0,52,5","8s2.11s1.3p4.1d1 f,1,2,0,51,8",0.5,1.0,1.0
TiO 1,4809.1982,-1.545,0.15135587878511356,7.0,2.7287167486780803,6.0,99.0,99.0,99.0,7.33,0.0,0.0,0.002,_          0.0325004          3 wl:PPN2012   3 gf:PPN2012   3 PPN2012   3 PPN2012   3 PPN2012   3 PPN2012   3 PPN2012   3 PPN2012   3 PPN2012    (46)TiO,"8s2.9s1.3p4.1d1 X,3,2,0,8,1","8s2.11s1.3p4.1d1 C,3,2,0,7,3",0.5,1.0,1.0
TiO 1,4809.1998,-0.742,0.2081763858705625,54.0,2.785560155644802,53.0,99.0,99.0,99.0,7.312,0.0,0.0,0.011000000000000001,_          0.0769462          2 wl:PPN2012   2 gf:PPN2012   2 PPN2012   2 PPN2012   2 PPN2012   2 PPN2012   2 PPN2012   2 PPN2012   2 PPN2012    (47)TiO,"8s2.9s1.3p4.1d1 X,3,2,0,54,0","8s2.11s1.3p4.1d1 C,3,2,0,53,2",0.5,1.0,1.0
TiO 1,4809.2061,0.228,1.330002787164759,104.0,3.9073420218152677,104.0,99.0,99.0,99.0,7.456,0.0,0.0,0.001,_                             6 wl:PPN2012   6 gf:PPN2012   6 PPN2012   6 PPN2012   6 PPN2012   6 PPN2012   6 PPN2012   6 PPN2012   6 PPN2012    (48)TiO,"8s2.9s1.3p4.1d1 X,3,2,-,105,5","8s2.3p4.4p1.1d1 B,3,1,+,105,8",0.5,1.0,1.0
TiO 1,4809.2095,-0.879,0.19475796052938277,26.0,2.7721371304898965,27.0,99.0,99.0,99.0,7.324,0.0,0.0,0.008,_          0.0778619          3 wl:PPN2012   3 gf:PPN2012   3 PPN2012   3 PPN2012   3 PPN2012   3 PPN2012   3 PPN2012   3 PPN2012   3 PPN2012    (46)TiO,"8s2.9s1.3p4.1d1 X,3,2,0,27,1","8s2.11s1.3p4.1d1 C,3,2,0,28,3",0.5,1.0,1.0
TiO 1,4809.2113,0.152,1.3126140034695737,104.0,3.88995038648354,104.0,99.0,99.0,99.0,7.455,0.0,0.0,0.001,_                             6 wl:PPN2012   6 gf:PPN2012   6 PPN2012   6 PPN2012   6 PPN2012   6 PPN2012   6 PPN2012   6 PPN2012   6 PPN2012    (48)TiO,"8s2.9s1.3p4.1d1 X,3,2,-,104,5","8s2.3p4.4p1.1d1 B,3,1,+,104,8",0.5,1.0,1.0
Mn 1,4809.2183,-1.9469999999999998,5.087255118811577,4.5,7.664587782299619,5.5,1.12,1.25,1.54,7.89,-5.9,-7.77,0.002,_      A   Kurucz MnI 2007   39 wl:K07  39 gf:K07  39 K07  39 K07  39 K07  39 K07  39 K07  39 K07  39 K07    Mn,3d6.(3G).4s a2G,3d6.(3H).4p 2H*,0.5,1.0,1.0
TiO 1,4809.2202,-0.48200000000000004,0.8838086308871417,62.0,3.461140252907925,62.0,99.0,99.0,99.0,7.419,0.0,0.0,0.001,_                             6 wl:PPN2012   6 gf:PPN2012   6 PPN2012   6 PPN2012   6 PPN2012   6 PPN2012   6 PPN2012   6 PPN2012   6 PPN2012    (48)TiO,"8s2.9s1.3p4.1d1 X,3,2,+,63,5","8s2.3p4.4p1.1d1 B,3,1,-,63,9",0.5,1.0,1.0
TiO 1,4809.222,-1.097,0.5417195293956614,41.0,3.1190502463318035,42.0,99.0,99.0,99.0,7.405,0.0,0.0,0.001,_                             3 wl:PPN2012   3 gf:PPN2012   3 PPN2012   3 PPN2012   3 PPN2012   3 PPN2012   3 PPN2012   3 PPN2012   3 PPN2012    (46)TiO,"8s2.9s1.3p4.1d1 a,1,2,0,41,0","8s2.11s1.3p4.1d1 f,1,2,0,42,2",0.5,1.0,1.0
TiO 1,4809.2258,-0.9690000000000001,0.15065697986397444,7.0,2.727985613865599,7.0,99.0,99.0,99.0,7.33,0.0,0.0,0.008,_                             6 wl:PPN2012   6 gf:PPN2012   6 PPN2012   6 PPN2012   6 PPN2012   6 PPN2012   6 PPN2012   6 PPN2012   6 PPN2012    (48)TiO,"8s2.9s1.3p4.1d1 X,3,2,0,8,1","8s2.11s1.3p4.1d1 C,3,2,0,8,3",0.5,1.0,1.0
MgH 1,4809.2291,-2.821,0.4067580562451832,8.5,2.9840848924759444,8.5,99.0,99.0,99.0,7.39,0.0,0.0,0.001,_                            18 wl:KMGH  18 gf:KMGH  18 KMGH  18 KMGH  18 KMGH  18 KMGH  18 KMGH  18 KMGH  18 KMGH    (24)MgH,"4s2.5s1 X,2,0,f,9,2","4s2.2p1 A,2,1,e,8,3",0.5,1.0,1.0
CH 1,4809.237,-2.435,1.1431842663061538,17.5,3.7205070110583986,17.5,99.0,99.0,99.0,6.27,0.0,0.0,0.005,_                            37 wl:JLIY  37 gf:JLIY  37 JLIY  37 JLIY  37 JLIY  37 JLIY  37 JLIY  37 JLIY  37 JLIY    (12)CH,"1s2.2s2.3s2.1p1 X,2,1,e,17,2","1s2.2s2.3s1.1p2 A,2,2,f,17,1",0.5,1.0,1.0
TiO 1,4809.2378,0.5710000000000001,1.2050147144445558,127.0,3.7818424894836604,128.0,99.0,99.0,99.0,7.218,0.0,0.0,0.005,_          -0.922769          6 wl:PPN2012   6 gf:PPN2012   6 PPN2012   6 PPN2012   6 PPN2012   6 PPN2012   6 PPN2012   6 PPN2012   6 PPN2012    (48)TiO,"8s2.9s1.3p4.1d1 X,3,2,0,128,1","8s2.11s1.3p4.1d1 C,3,2,0,129,4",0.5,1.0,1.0
TiO 1,4809.2455,-1.043,0.18431068009795745,27.0,2.7616661690767543,28.0,99.0,99.0,99.0,7.324,0.0,0.0,0.006,_          0.0697912          8 wl:PPN2012   8 gf:PPN2012   8 PPN2012   8 PPN2012   8 PPN2012   8 PPN2012   8 PPN2012   8 PPN2012   8 PPN2012    (49)TiO,"8s2.9s1.3p4.1d1 X,3,2,0,27,1","8s2.11s1.3p4.1d1 C,3,2,0,28,3",0.5,1.0,1.0
TiO 1,4809.2514,-0.925,0.19796055913897437,51.0,2.7753193089021644,50.0,99.0,99.0,99.0,7.314,0.0,0.0,0.006999999999999999,_          0.0817041          4 wl:PPN2012   4 gf:PPN2012   4 PPN2012   4 PPN2012   4 PPN2012   4 PPN2012   4 PPN2012   4 PPN2012   4 PPN2012    (50)TiO,"8s2.9s1.3p4.1d1 X,3,2,0,52,0","8s2.11s1.3p4.1d1 C,3,2,0,51,2",0.5,1.0,1.0
TiO 1,4809.2545,-1.3459999999999999,0.16014969356065756,14.0,2.737502144926616,15.0,99.0,99.0,99.0,7.327000000000001,0.0,0.0,0.003,_          0.0731307          4 wl:PPN2012   4 gf:PPN2012   4 PPN2012   4 PPN2012   4 PPN2012   4 PPN2012   4 PPN2012   4 PPN2012   4 PPN2012    (50)TiO,"8s2.9s1.3p4.1d1 X,3,2,0,15,1","8s2.11s1.3p4.1d1 C,3,2,0,16,3",0.5,1.0,1.0
S 1,4809.2581,-2.049,8.045654701034426,2.0,10.622966039240502,3.0,1.5,1.33,1.17,8.35,-4.99,-7.42,0.01,_      A   Kurucz S I 2004   45 wl:K04  45 gf:K04  45 K04  45 K04  45 K04  45 K04  45 K04  45 K04  45 K04    S,3s2.3p3.(4S*).4p 3P,3s2.3p3.(2D*).5s 3D*,0.5,1.0,1.0
S 1,4809.2581,-2.75,8.045654701034426,2.0,10.622966039240502,2.0,1.5,1.17,1.33,8.35,-4.99,-7.42,0.002,_      A   Kurucz S I 2004   45 wl:K04  45 gf:K04  45 K04  45 K04  45 K04  45 K04  45 K04  45 K04  45 K04    S,3s2.3p3.(4S*).4p 3P,3s2.3p3.(2D*).5s 3D*,0.5,1.0,1.0
TiO 1,4809.2608,-1.554,0.14072746983960413,9.0,2.718053735743057,8.0,99.0,99.0,99.0,7.331,0.0,0.0,0.002,_          0.0304614          8 wl:PPN2012   8 gf:PPN2012   8 PPN2012   8 PPN2012   8 PPN2012   8 PPN2012   8 PPN2012   8 PPN2012   8 PPN2012    (49)TiO,"8s2.9s1.3p4.1d1 X,3,2,0,9,1","8s2.11s1.3p4.1d1 C,3,2,0,8,3",0.5,1.0,1.0
TiO 1,4809.2661,-0.907,0.18485343332080267,53.0,2.7621688010132983,52.0,99.0,99.0,99.0,7.313,0.0,0.0,0.008,_          0.0154440          4 wl:PPN2012   4 gf:PPN2012   4 PPN2012   4 PPN2012   4 PPN2012   4 PPN2012   4 PPN2012   4 PPN2012   4 PPN2012    (50)TiO,"8s2.9s1.3p4.1d1 X,3,2,0,52,0","8s2.11s1.3p4.1d1 C,3,2,0,51,2",0.5,1.0,1.0
TiO 1,4809.2667,0.387,0.34227619364546275,72.0,2.919572814927301,73.0,99.0,99.0,99.0,7.296,0.0,0.0,0.08199999999999999,_          -0.0189029         6 wl:PPN2012   6 gf:PPN2012   6 PPN2012   6 PPN2012   6 PPN2012   6 PPN2012   6 PPN2012   6 PPN2012   6 PPN2012    (48)TiO,"8s2.9s1.3p4.1d1 X,3,2,0,71,0","8s2.11s1.3p4.1d1 C,3,2,0,72,2",0.5,1.0,1.0
TiO 1,4809.2716,-0.958,0.18735180168876395,24.0,2.764697086768109,25.0,99.0,99.0,99.0,7.324,0.0,0.0,0.006999999999999999,_          0.0767611          2 wl:PPN2012   2 gf:PPN2012   2 PPN2012   2 PPN2012   2 PPN2012   2 PPN2012   2 PPN2012   2 PPN2012   2 PPN2012    (47)TiO,"8s2.9s1.3p4.1d1 X,3,2,0,25,1","8s2.11s1.3p4.1d1 C,3,2,0,26,3",0.5,1.0,1.0
TiO 1,4809.2772,0.091,0.6854029684792495,55.0,3.2627040407937766,54.0,99.0,99.0,99.0,7.297999999999999,0.0,0.0,0.012,_                             6 wl:PPN2012   6 gf:PPN2012   6 PPN2012   6 PPN2012   6 PPN2012   6 PPN2012   6 PPN2012   6 PPN2012   6 PPN2012    (48)TiO,"8s2.9s1.3p4.1d1 X,3,2,0,54,4","8s2.11s1.3p4.1d1 C,3,2,0,53,7",0.5,1.0,1.0
TiO 1,4809.2777,-0.35600000000000004,0.13101162178273407,10.0,2.7083756532727365,9.0,99.0,99.0,99.0,7.33,0.0,0.0,0.034,_          0.118021           6 wl:PPN2012   6 gf:PPN2012   6 PPN2012   6 PPN2012   6 PPN2012   6 PPN2012   6 PPN2012   6 PPN2012   6 PPN2012    (48)TiO,"8s2.9s1.3p4.1d1 X,3,2,0,9,1","8s2.11s1.3p4.1d1 C,3,2,0,8,3",0.5,1.0,1.0
MgH 1,4809.2819,-1.311,0.40678632464220643,9.5,2.9840848924759444,8.5,99.0,99.0,99.0,7.39,0.0,0.0,0.037000000000000005,_                            18 wl:KMGH  18 gf:KMGH  18 KMGH  18 KMGH  18 KMGH  18 KMGH  18 KMGH  18 KMGH  18 KMGH    (24)MgH,"4s2.5s1 X,2,0,e,9,2","4s2.2p1 A,2,1,e,8,3",0.5,1.0,1.0
TiO 1,4809.2827,-0.43700000000000006,0.6599962507178685,28.0,3.237294471395854,29.0,99.0,99.0,99.0,7.306,0.0,0.0,0.004,_                             6 wl:PPN2012   6 gf:PPN2012   6 PPN2012   6 PPN2012   6 PPN2012   6 PPN2012   6 PPN2012   6 PPN2012   6 PPN2012    (48)TiO,"8s2.9s1.3p4.1d1 X,3,2,0,27,5","8s2.11s1.3p4.1d1 C,3,2,0,28,8",0.5,1.0,1.0
Cr 1,4809.285,-1.281,3.5557952445613092,1.0,6.133090216853321,2.0,0.53,0.47,0.44,7.96,-6.11,-7.78,0.501,_          Wallace Cr1 wave  14 wl:WLHK  10 gf:K16  14 WLHK  14 WLHK  10 K16  10 K16  10 K16  10 K16  10 K16    Cr,3d5.(4D).4s a3D,3d4.(3G).4s.4p.(3P*) w5G*,0.5,1.0,1.0
TiO 1,4809.2902,-0.8440000000000001,0.6168127779105786,11.0,3.194106931906887,10.0,99.0,99.0,99.0,7.312,0.0,0.0,0.002,_                             6 wl:PPN2012   6 gf:PPN2012   6 PPN2012   6 PPN2012   6 PPN2012   6 PPN2012   6 PPN2012   6 PPN2012   6 PPN2012    (48)TiO,"8s2.9s1.3p4.1d1 X,3,2,0,10,5","8s2.11s1.3p4.1d1 C,3,2,0,9,8",0.5,1.0,1.0
TiO 1,4809.2904,-0.86,0.1849522859214456,30.0,2.762260053382636,31.0,99.0,99.0,99.0,7.3229999999999995,0.0,0.0,0.009000000000000001,_          0.0255668          2 wl:PPN2012   2 gf:PPN2012   2 PPN2012   2 PPN2012   2 PPN2012   2 PPN2012   2 PPN2012   2 PPN2012   2 PPN2012    (47)TiO,"8s2.9s1.3p4.1d1 X,3,2,0,29,1","8s2.11s1.3p4.1d1 C,3,2,0,30,3",0.5,1.0,1.0
TiO 1,4832.0035,0.629,1.464773237862195,138.0,3.998224050355438,139.0,99.0,99.0,99.0,7.196000000000001,0.0,0.0,0.002,_          -60.5165           6 wl:PPN2012   6 gf:PPN2012   6 PPN2012   6 PPN2012   6 PPN2012   6 PPN2012   6 PPN2012   6 PPN2012   6 PPN2012    (48)TiO,"8s2.9s1.3p4.1d1 X,3,2,0,137,2","8s2.11s1.3p4.1d1 C,3,2,0,138,5",0.5,1.0,1.0
Pr 2,4832.015,-3.339,0.05478296553834435,5.0,2.619956456625864,5.0,0.88,99.0,99.0,0.0,0.0,0.0,0.26,"_          La1 to Lu 2 Bell   1 wl:MC   1 gf:MC   1 MC   1 MC   1 MC   1 MC   1 MC   1 MC   1 MC   hfs:RIRS,GINo Pr+","4f3.(4I*<9/2>).6s.<1/2> (9/2,1/2)*",4f2.5d2 4f2.5d2,0.5,1.0,2.0
Pr 2,4832.0211,-3.3510000000000004,0.05473951354056217,5.0,2.6199097814109007,5.0,0.88,99.0,99.0,0.0,0.0,0.0,0.26,"_          La1 to Lu 2 Bell   1 wl:MC   1 gf:MC   1 MC   1 MC   1 MC   1 MC   1 MC   1 MC   1 MC   hfs:RIRS,GINo Pr+","4f3.(4I*<9/2>).6s.<1/2> (9/2,1/2)*",4f2.5d2 4f2.5d2,0.5,1.0,2.0
TiO 1,4832.0235,0.222,0.2325498317286472,38.0,2.7977662759015387,37.0,99.0,99.0,99.0,7.32,0.0,0.0,0.086,_          0.0896130          6 wl:PPN2012   6 gf:PPN2012   6 PPN2012   6 PPN2012   6 PPN2012   6 PPN2012   6 PPN2012   6 PPN2012   6 PPN2012    (48)TiO,"8s2.9s1.3p4.1d1 X,3,2,0,38,1","8s2.11s1.3p4.1d1 C,3,2,0,37,3",0.5,1.0,1.0
Fe 1,4832.0364,-2.625,4.190860777648724,2.0,6.756022780360507,3.0,1.5,0.48,-0.53,8.47,-4.66,-7.51,0.27399999999999997,_          Kurucz Fe I 2014   5 wl:K14   5 gf:K14   5 K14   5 K14   5 K14   5 K14   5 K14   5 K14   5 K14    Fe,3d7.(4F).4p y5D*,3d7.(4F).4d e5H,0.5,1.0,1.0
MgH 1,4832.0366,-1.109,0.4591847741454265,20.5,3.0243466528730116,19.5,99.0,99.0,99.0,7.39,0.0,0.0,0.049,_                            18 wl:KMGH  18 gf:KMGH  18 KMGH  18 KMGH  18 KMGH  18 KMGH  18 KMGH  18 KMGH  18 KMGH    (24)MgH,"4s2.5s1 X,2,0,e,20,1","4s2.2p1 A,2,1,e,19,2",0.5,1.0,1.0
Sr 1,4832.038,-0.46,1.775144615167929,0.0,4.3403033942905775,1.0,99.0,99.0,99.0,0.0,0.0,0.0,0.455,E0.03      Sr 1 (GC+NIST)    62 wl:GC  62 gf:GC  62 GC  62 GC  62 GC  62 GC  62 GC  62 GC  62 GC    Sr,5s.5p 3P*,5s.5d 3D,1.0715193052376064,1.0,1.0