species,wlcent,gflog,excit,j_lo,e_upp,j_up,lande_lower,lande_upper,lande,gamrad,gamqst,gamvw,depth,reference,term_lower,term_upper,error,atom_number,ionization
TiO 1,4794.8104,-0.637,0.2773938124942347,61.0,2.8625162791251277,62.0,99.0,99.0,99.0,7.305,0.0,0.0,0.01,_          0.0840287          3 wl:PPN2012   3 gf:PPN2012   3 PPN2012   3 PPN2012   3 PPN2012   3 PPN2012   3 PPN2012   3 PPN2012   3 PPN2012    (46)TiO,"8s2.9s1.3p4.1d1 X,3,2,0,62,0","8s2.11s1.3p4.1d1 C,3,2,0,63,2",0.5,1.0,1.0
Ti 2,4794.8123,-4.19,1.1305232480288991,4.5,3.715599344569939,4.5,1.11,1.17,1.14,8.23,-6.48,-7.86,0.345,E0.12      Kurucz TiII 2016  30 wl:K16  47 gf:RHL  30 K16  30 K16  30 K16  30 K16  30 K16  30 K16  30 K16    Ti+,3d3 a2G,3d2.(3F).4p z4G*,1.318256738556407,1.0,2.0
CH 1,4794.826,-2.944,0.5215524210146272,10.5,3.1066212024880158,11.5,99.0,99.0,99.0,6.27,0.0,0.0,0.009000000000000001,_                            37 wl:JLIY  37 gf:JLIY  37 JLIY  37 JLIY  37 JLIY  37 JLIY  37 JLIY  37 JLIY  37 JLIY    (12)CH,"1s2.2s2.3s2.1p1 X,2,1,e,10,1","1s2.2s2.3s1.1p2 A,2,2,e,11,0",0.5,1.0,1.0
TiO 1,4794.8373,0.172,1.3325135911477266,77.0,3.9175761734112418,77.0,99.0,99.0,99.0,7.591,0.0,0.0,0.001,_                             6 wl:PPN2012   6 gf:PPN2012   6 PPN2012   6 PPN2012   6 PPN2012   6 PPN2012   6 PPN2012   6 PPN2012   6 PPN2012    (48)TiO,"8s2.9s1.3p4.1d1 X,3,2,+,76,8","8s2.3p4.4p1.1d1 B,3,1,-,76,11",0.5,1.0,1.0
TiO 1,4794.8421,-0.547,0.8053791163993402,70.0,3.390439256174165,70.0,99.0,99.0,99.0,7.36,0.0,0.0,0.002,_                             6 wl:PPN2012   6 gf:PPN2012   6 PPN2012   6 PPN2012   6 PPN2012   6 PPN2012   6 PPN2012   6 PPN2012   6 PPN2012    (48)TiO,"8s2.9s1.3p4.1d1 X,3,2,+,69,4","8s2.3p4.4p1.1d1 B,3,1,-,69,8",0.5,1.0,1.0
TiO 1,4794.8608,0.018000000000000002,0.6338654280480027,45.0,3.2189154259154744,44.0,99.0,99.0,99.0,7.303,0.0,0.0,0.012,_                             6 wl:PPN2012   6 gf:PPN2012   6 PPN2012   6 PPN2012   6 PPN2012   6 PPN2012   6 PPN2012   6 PPN2012   6 PPN2012    (48)TiO,"8s2.9s1.3p4.1d1 X,3,2,0,45,4","8s2.11s1.3p4.1d1 C,3,2,0,44,7",0.5,1.0,1.0
TiO 1,4794.8968,-0.65,0.8289505580776697,71.0,3.413981127621398,71.0,99.0,99.0,99.0,7.362,0.0,0.0,0.001,_                             6 wl:PPN2012   6 gf:PPN2012   6 PPN2012   6 PPN2012   6 PPN2012   6 PPN2012   6 PPN2012   6 PPN2012   6 PPN2012    (48)TiO,"8s2.9s1.3p4.1d1 X,3,2,+,71,4","8s2.3p4.4p1.1d1 B,3,1,-,71,8",0.5,1.0,1.0
TiO 1,4794.9007,0.483,1.35338695071281,114.0,3.938415437322021,113.0,99.0,99.0,99.0,7.232,0.0,0.0,0.002,_                             6 wl:PPN2012   6 gf:PPN2012   6 PPN2012   6 PPN2012   6 PPN2012   6 PPN2012   6 PPN2012   6 PPN2012   6 PPN2012    (48)TiO,"8s2.9s1.3p4.1d1 X,3,2,0,115,4","8s2.11s1.3p4.1d1 C,3,2,0,114,8",0.5,1.0,1.0
TiO 1,4794.9072,0.009000000000000001,0.6411151560266735,44.0,3.2261401090862565,43.0,99.0,99.0,99.0,7.303999999999999,0.0,0.0,0.011000000000000001,_                             6 wl:PPN2012   6 gf:PPN2012   6 PPN2012   6 PPN2012   6 PPN2012   6 PPN2012   6 PPN2012   6 PPN2012   6 PPN2012    (48)TiO,"8s2.9s1.3p4.1d1 X,3,2,0,45,4","8s2.11s1.3p4.1d1 C,3,2,0,44,7",0.5,1.0,1.0
TiO 1,4794.9083,-0.8320000000000001,0.14265543650868434,44.0,2.7277258669718996,43.0,99.0,99.0,99.0,7.318,0.0,0.0,0.011000000000000001,_          0.0854761          2 wl:PPN2012   2 gf:PPN2012   2 PPN2012   2 PPN2012   2 PPN2012   2 PPN2012   2 PPN2012   2 PPN2012   2 PPN2012    (47)TiO,"8s2.9s1.3p4.1d1 X,3,2,0,44,0","8s2.11s1.3p4.1d1 C,3,2,0,43,2",0.5,1.0,1.0
TiO 1,4794.912,-0.65,0.7278712384434329,71.0,3.3129071021123933,70.0,99.0,99.0,99.0,7.289,0.0,0.0,0.002,_          0.0250387          2 wl:PPN2012   2 gf:PPN2012   2 PPN2012   2 PPN2012   2 PPN2012   2 PPN2012   2 PPN2012   2 PPN2012   2 PPN2012    (47)TiO,"8s2.9s1.3p4.1d1 X,3,2,0,72,3","8s2.11s1.3p4.1d1 C,3,2,0,71,6",0.5,1.0,1.0
TiO 1,4794.9221,-1.032,0.13133076950544192,40.0,2.716399042643621,39.0,99.0,99.0,99.0,7.32,0.0,0.0,0.006999999999999999,_          0.0953387          4 wl:PPN2012   4 gf:PPN2012   4 PPN2012   4 PPN2012   4 PPN2012   4 PPN2012   4 PPN2012   4 PPN2012   4 PPN2012    (50)TiO,"8s2.9s1.3p4.1d1 X,3,2,0,41,0","8s2.11s1.3p4.1d1 C,3,2,0,40,2",0.5,1.0,1.0
TiO 1,4794.9254,-0.622,0.2656288156136771,63.0,2.8506374771497125,64.0,99.0,99.0,99.0,7.303999999999999,0.0,0.0,0.011000000000000001,_          -0.0120974         3 wl:PPN2012   3 gf:PPN2012   3 PPN2012   3 PPN2012   3 PPN2012   3 PPN2012   3 PPN2012   3 PPN2012   3 PPN2012    (46)TiO,"8s2.9s1.3p4.1d1 X,3,2,0,62,0","8s2.11s1.3p4.1d1 C,3,2,0,63,2",0.5,1.0,1.0
TiO 1,4794.935,-0.473,0.8727221871209183,98.0,3.4489299171884746,97.0,99.0,99.0,99.0,7.263999999999999,0.0,0.0,0.001,_          -16.3833           2 wl:PPN2012   2 gf:PPN2012   2 PPN2012   2 PPN2012   2 PPN2012   2 PPN2012   2 PPN2012   2 PPN2012   2 PPN2012    (47)TiO,"8s2.9s1.3p4.1d1 X,3,2,0,97,2","8s2.11s1.3p4.1d1 C,3,2,0,96,5",0.5,1.0,1.0
TiO 1,4794.9361,0.13699999999999998,0.7378910709556603,62.0,3.3229004763968804,63.0,99.0,99.0,99.0,7.291,0.0,0.0,0.01,_                             6 wl:PPN2012   6 gf:PPN2012   6 PPN2012   6 PPN2012   6 PPN2012   6 PPN2012   6 PPN2012   6 PPN2012   6 PPN2012    (48)TiO,"8s2.9s1.3p4.1d1 X,3,2,0,61,4","8s2.11s1.3p4.1d1 C,3,2,0,62,7",0.5,1.0,1.0
Zr 1,4794.94,-1.15,1.5302588393293746,4.0,4.115266124640818,3.0,1.15,1.08,1.25,0.0,0.0,0.0,0.182,_          Cu 1 - Ba 2 Bell  17 wl:CB  17 gf:CB  17 CB  17 CB  17 CB  17 CB  17 CB  17 CB  17 CB    Zr,4d3.(b4F).5s b3F,4d3.(b2F).5p v3F*,0.5,1.0,1.0
TiO 1,4794.9447,-0.925,0.6438617283595501,46.0,3.2288665215886243,45.0,99.0,99.0,99.0,7.303,0.0,0.0,0.001,_                             3 wl:PPN2012   3 gf:PPN2012   3 PPN2012   3 PPN2012   3 PPN2012   3 PPN2012   3 PPN2012   3 PPN2012   3 PPN2012    (46)TiO,"8s2.9s1.3p4.1d1 X,3,2,0,46,4","8s2.11s1.3p4.1d1 C,3,2,0,45,7",0.5,1.0,1.0
TiO 1,4794.9461,-0.82,0.25922446148703676,61.0,2.84426555728913,62.0,99.0,99.0,99.0,7.306,0.0,0.0,0.006999999999999999,_          0.0687173          8 wl:PPN2012   8 gf:PPN2012   8 PPN2012   8 PPN2012   8 PPN2012   8 PPN2012   8 PPN2012   8 PPN2012   8 PPN2012    (49)TiO,"8s2.9s1.3p4.1d1 X,3,2,0,61,0","8s2.11s1.3p4.1d1 C,3,2,0,62,2",0.5,1.0,1.0
TiO 1,4794.9554,-0.98,0.12284736156668415,43.0,2.707868805873479,42.0,99.0,99.0,99.0,7.319,0.0,0.0,0.008,_          0.0415272          8 wl:PPN2012   8 gf:PPN2012   8 PPN2012   8 PPN2012   8 PPN2012   8 PPN2012   8 PPN2012   8 PPN2012   8 PPN2012    (49)TiO,"8s2.9s1.3p4.1d1 X,3,2,0,42,0","8s2.11s1.3p4.1d1 C,3,2,0,41,2",0.5,1.0,1.0
TiO 1,4794.9586,0.341,1.2568290495966548,101.0,3.8418262921881032,100.0,99.0,99.0,99.0,7.247000000000001,0.0,0.0,0.002,_                             6 wl:PPN2012   6 gf:PPN2012   6 PPN2012   6 PPN2012   6 PPN2012   6 PPN2012   6 PPN2012   6 PPN2012   6 PPN2012    (48)TiO,"8s2.9s1.3p4.1d1 X,3,2,0,100,5","8s2.11s1.3p4.1d1 C,3,2,0,99,9",0.5,1.0,1.0
TiO 1,4794.9741,-0.7829999999999999,0.7169752096076842,72.0,3.301229774457867,71.0,99.0,99.0,99.0,7.287999999999999,0.0,0.0,0.001,_          -1.36268           8 wl:PPN2012   8 gf:PPN2012   8 PPN2012   8 PPN2012   8 PPN2012   8 PPN2012   8 PPN2012   8 PPN2012   8 PPN2012    (49)TiO,"8s2.9s1.3p4.1d1 X,3,2,0,72,3","8s2.11s1.3p4.1d1 C,3,2,0,71,6",0.5,1.0,1.0
TiO 1,4794.9804,-0.662,0.7987816444867204,90.0,3.383657568540944,89.0,99.0,99.0,99.0,7.273,0.0,0.0,0.001,_          -0.203296          4 wl:PPN2012   4 gf:PPN2012   4 PPN2012   4 PPN2012   4 PPN2012   4 PPN2012   4 PPN2012   4 PPN2012   4 PPN2012    (50)TiO,"8s2.9s1.3p4.1d1 X,3,2,0,91,2","8s2.11s1.3p4.1d1 C,3,2,0,90,5",0.5,1.0,1.0
TiO 1,4795.0413,-0.8640000000000001,0.7604598152337896,61.0,3.345412535099926,62.0,99.0,99.0,99.0,7.292000000000001,0.0,0.0,0.001,_                             2 wl:PPN2012   2 gf:PPN2012   2 PPN2012   2 PPN2012   2 PPN2012   2 PPN2012   2 PPN2012   2 PPN2012   2 PPN2012    (47)TiO,"8s2.9s1.3p4.1d1 X,3,2,0,62,4","8s2.11s1.3p4.1d1 C,3,2,0,63,7",0.5,1.0,1.0
MgH 1,4795.0501,-1.419,0.19130712075961648,4.5,2.7762550176404717,4.5,99.0,99.0,99.0,7.39,0.0,0.0,0.061,_                            18 wl:KMGH  18 gf:KMGH  18 KMGH  18 KMGH  18 KMGH  18 KMGH  18 KMGH  18 KMGH  18 KMGH    (24)MgH,"4s2.5s1 X,2,0,e,4,1","4s2.2p1 A,2,1,f,4,2",0.5,1.0,1.0
TiO 1,4795.0611,-0.447,0.918492168662151,110.0,3.5005547052994817,109.0,99.0,99.0,99.0,7.25,0.0,0.0,0.001,_          -5.34761           3 wl:PPN2012   3 gf:PPN2012   3 PPN2012   3 PPN2012   3 PPN2012   3 PPN2012   3 PPN2012   3 PPN2012   3 PPN2012    (46)TiO,"8s2.9s1.3p4.1d1 X,3,2,0,109,1","8s2.11s1.3p4.1d1 C,3,2,0,108,4",0.5,1.0,1.0
TiO 1,4795.0682,0.596,1.1884832194827775,121.0,3.752767203303336,122.0,99.0,99.0,99.0,7.227,0.0,0.0,0.006,_          -38.6228           6 wl:PPN2012   6 gf:PPN2012   6 PPN2012   6 PPN2012   6 PPN2012   6 PPN2012   6 PPN2012   6 PPN2012   6 PPN2012    (48)TiO,"8s2.9s1.3p4.1d1 X,3,2,0,120,2","8s2.11s1.3p4.1d1 C,3,2,0,121,5",0.5,1.0,1.0
TiO 1,4795.0766,-0.8590000000000001,0.754356085590755,62.0,3.3392898234762587,63.0,99.0,99.0,99.0,7.291,0.0,0.0,0.001,_                             2 wl:PPN2012   2 gf:PPN2012   2 PPN2012   2 PPN2012   2 PPN2012   2 PPN2012   2 PPN2012   2 PPN2012   2 PPN2012    (47)TiO,"8s2.9s1.3p4.1d1 X,3,2,0,62,4","8s2.11s1.3p4.1d1 C,3,2,0,63,7",0.5,1.0,1.0
TiO 1,4795.0898,0.307,0.26658098945340825,60.0,2.851552728495437,61.0,99.0,99.0,99.0,7.306,0.0,0.0,0.091,_          0.0838805          6 wl:PPN2012   6 gf:PPN2012   6 PPN2012   6 PPN2012   6 PPN2012   6 PPN2012   6 PPN2012   6 PPN2012   6 PPN2012    (48)TiO,"8s2.9s1.3p4.1d1 X,3,2,0,61,0","8s2.11s1.3p4.1d1 C,3,2,0,62,2",0.5,1.0,1.0
TiO 1,4795.0901,-0.5660000000000001,0.9228625868261334,91.0,3.5041387164957505,92.0,99.0,99.0,99.0,7.267,0.0,0.0,0.001,_          -6.78102           2 wl:PPN2012   2 gf:PPN2012   2 PPN2012   2 PPN2012   2 PPN2012   2 PPN2012   2 PPN2012   2 PPN2012   2 PPN2012    (47)TiO,"8s2.9s1.3p4.1d1 X,3,2,0,91,3","8s2.11s1.3p4.1d1 C,3,2,0,92,6",0.5,1.0,1.0
TiO 1,4795.0938,-0.8540000000000001,0.14411942951399187,42.0,2.729093784622587,41.0,99.0,99.0,99.0,7.319,0.0,0.0,0.01,_          0.0926240          2 wl:PPN2012   2 gf:PPN2012   2 PPN2012   2 PPN2012   2 PPN2012   2 PPN2012   2 PPN2012   2 PPN2012   2 PPN2012    (47)TiO,"8s2.9s1.3p4.1d1 X,3,2,0,43,0","8s2.11s1.3p4.1d1 C,3,2,0,42,2",0.5,1.0,1.0
V 1,4795.0987,-0.797,2.616266181177612,3.5,5.201187917392802,2.5,0.89,0.84,0.95,8.14,-5.58,-7.73,0.24,_          Kurucz V I 2009   19 wl:K09  19 gf:K09  19 K09  19 K09  19 K09  19 K09  19 K09  19 K09  19 K09    V,3d4.(3G).4s 2G,3d4.(3D).4p u2F*,0.5,1.0,1.0
TiO 1,4795.104,-0.981,0.13552906040807663,43.0,2.7204943646702566,42.0,99.0,99.0,99.0,7.319,0.0,0.0,0.008,_          0.0862333          8 wl:PPN2012   8 gf:PPN2012   8 PPN2012   8 PPN2012   8 PPN2012   8 PPN2012   8 PPN2012   8 PPN2012   8 PPN2012    (49)TiO,"8s2.9s1.3p4.1d1 X,3,2,0,43,0","8s2.11s1.3p4.1d1 C,3,2,0,42,2",0.5,1.0,1.0
TiO 1,4795.1215,-0.6579999999999999,0.7940631902820194,91.0,3.3787812700544437,90.0,99.0,99.0,99.0,7.272,0.0,0.0,0.001,_          -0.355084          4 wl:PPN2012   4 gf:PPN2012   4 PPN2012   4 PPN2012   4 PPN2012   4 PPN2012   4 PPN2012   4 PPN2012   4 PPN2012    (50)TiO,"8s2.9s1.3p4.1d1 X,3,2,0,91,2","8s2.11s1.3p4.1d1 C,3,2,0,90,5",0.5,1.0,1.0
TiO 1,4795.1488,0.322,0.25462542886133904,62.0,2.8395141108894824,63.0,99.0,99.0,99.0,7.305,0.0,0.0,0.099,_          -0.0112056         6 wl:PPN2012   6 gf:PPN2012   6 PPN2012   6 PPN2012   6 PPN2012   6 PPN2012   6 PPN2012   6 PPN2012   6 PPN2012    (48)TiO,"8s2.9s1.3p4.1d1 X,3,2,0,61,0","8s2.11s1.3p4.1d1 C,3,2,0,62,2",0.5,1.0,1.0
MgH 1,4795.1507,-1.24,0.1474147311080319,13.5,2.7323084468945926,13.5,99.0,99.0,99.0,7.39,0.0,0.0,0.102,_                            18 wl:KMGH  18 gf:KMGH  18 KMGH  18 KMGH  18 KMGH  18 KMGH  18 KMGH  18 KMGH  18 KMGH    (24)MgH,"4s2.5s1 X,2,0,f,14,0","4s2.2p1 A,2,1,e,14,1",0.5,1.0,1.0
TiO 1,4795.1691,0.385,1.2479473176266846,83.0,3.832831238661645,82.0,99.0,99.0,99.0,7.356,0.0,0.0,0.003,_                             6 wl:PPN2012   6 gf:PPN2012   6 PPN2012   6 PPN2012   6 PPN2012   6 PPN2012   6 PPN2012   6 PPN2012   6 PPN2012    (48)TiO,"8s2.9s1.3p4.1d1 a,1,2,0,83,3","8s2.11s1.3p4.1d1 f,1,2,0,82,6",0.5,1.0,1.0
TiO 1,4795.1767,-0.547,0.8053791163993402,70.0,3.390258859166846,70.0,99.0,99.0,99.0,7.36,0.0,0.0,0.002,_                             6 wl:PPN2012   6 gf:PPN2012   6 PPN2012   6 PPN2012   6 PPN2012   6 PPN2012   6 PPN2012   6 PPN2012   6 PPN2012    (48)TiO,"8s2.9s1.3p4.1d1 X,3,2,-,69,4","8s2.3p4.4p1.1d1 B,3,1,+,69,8",0.5,1.0,1.0
Ce 2,4795.184,-1.41,0.5593245787264938,2.5,3.1442003168044215,2.5,0.73,0.76,0.75,0.0,0.0,0.0,0.39,E 0.05     Wisconsin REE ex  11 wl:LSCI  11 gf:LSCI  11 LSCI  11 LSCI  11 LSCI  11 LSCI  11 LSCI  11 LSCI  11 LSCI    Ce+,4f.5d.(3G*).6s 4G*,4f.5d.(3F*).6p 4G,1.1220184543019633,1.0,2.0
TiO 1,4795.2127,0.35200000000000004,0.704916742131715,72.0,3.2900858268208566,71.0,99.0,99.0,99.0,7.289,0.0,0.0,0.02,_          0.572783           6 wl:PPN2012   6 gf:PPN2012   6 PPN2012   6 PPN2012   6 PPN2012   6 PPN2012   6 PPN2012   6 PPN2012   6 PPN2012    (48)TiO,"8s2.9s1.3p4.1d1 X,3,2,0,71,3","8s2.11s1.3p4.1d1 C,3,2,0,70,6",0.5,1.0,1.0
TiO 1,4795.2232,-0.9690000000000001,0.6289524426374712,46.0,3.2138070290113103,45.0,99.0,99.0,99.0,7.303,0.0,0.0,0.001,_                             2 wl:PPN2012   2 gf:PPN2012   2 PPN2012   2 PPN2012   2 PPN2012   2 PPN2012   2 PPN2012   2 PPN2012   2 PPN2012    (47)TiO,"8s2.9s1.3p4.1d1 X,3,2,0,45,4","8s2.11s1.3p4.1d1 C,3,2,0,44,7",0.5,1.0,1.0
TiO 1,4795.2282,-0.777,0.13652686043247672,45.0,2.7213978375172214,44.0,99.0,99.0,99.0,7.318,0.0,0.0,0.013000000000000001,_          0.0352103          3 wl:PPN2012   3 gf:PPN2012   3 PPN2012   3 PPN2012   3 PPN2012   3 PPN2012   3 PPN2012   3 PPN2012   3 PPN2012    (46)TiO,"8s2.9s1.3p4.1d1 X,3,2,0,44,0","8s2.11s1.3p4.1d1 C,3,2,0,43,2",0.5,1.0,1.0
CN 1,4795.2346,-2.872,1.085973494162328,37.5,3.670821955716812,37.5,99.0,99.0,99.0,6.17,0.0,0.0,0.001,_                            48 wl:KCN  48 gf:KCN  48 KCN  48 KCN  48 KCN  48 KCN  48 KCN  48 KCN  48 KCN    (12)C(14)N,"3s2.4s2.1p4.5s1 X,2,0,,38,3","3s2.4s2.1p3.5s2 A,2,1,e,38,11",0.5,1.0,1.0
TiO 1,4795.2413,0.523,0.8688571905379229,98.0,3.4449009267074855,97.0,99.0,99.0,99.0,7.263999999999999,0.0,0.0,0.016,_          -16.3833           6 wl:PPN2012   6 gf:PPN2012   6 PPN2012   6 PPN2012   6 PPN2012   6 PPN2012   6 PPN2012   6 PPN2012   6 PPN2012    (48)TiO,"8s2.9s1.3p4.1d1 X,3,2,0,97,2","8s2.11s1.3p4.1d1 C,3,2,0,96,5",0.5,1.0,1.0
TiO 1,4795.2533,-0.809,0.7511921700507741,63.0,3.3360305268931647,64.0,99.0,99.0,99.0,7.291,0.0,0.0,0.001,_                             3 wl:PPN2012   3 gf:PPN2012   3 PPN2012   3 PPN2012   3 PPN2012   3 PPN2012   3 PPN2012   3 PPN2012   3 PPN2012    (46)TiO,"8s2.9s1.3p4.1d1 X,3,2,0,62,4","8s2.11s1.3p4.1d1 C,3,2,0,63,7",0.5,1.0,1.0
TiO 1,4795.2708,0.485,1.3494715297567033,115.0,3.934300525792185,114.0,99.0,99.0,99.0,7.231,0.0,0.0,0.002,_                             6 wl:PPN2012   6 gf:PPN2012   6 PPN2012   6 PPN2012   6 PPN2012   6 PPN2012   6 PPN2012   6 PPN2012   6 PPN2012    (48)TiO,"8s2.9s1.3p4.1d1 X,3,2,0,115,4","8s2.11s1.3p4.1d1 C,3,2,0,114,8",0.5,1.0,1.0
TiO 1,4795.309,-0.49200000000000005,0.9138944130736872,110.0,3.495823592308219,109.0,99.0,99.0,99.0,7.25,0.0,0.0,0.001,_          -5.34761           2 wl:PPN2012   2 gf:PPN2012   2 PPN2012   2 PPN2012   2 PPN2012   2 PPN2012   2 PPN2012   2 PPN2012   2 PPN2012    (47)TiO,"8s2.9s1.3p4.1d1 X,3,2,0,109,1","8s2.11s1.3p4.1d1 C,3,2,0,108,4",0.5,1.0,1.0
TiO 1,4795.3109,-0.853,0.25627460466398794,59.0,2.841127145298569,60.0,99.0,99.0,99.0,7.307,0.0,0.0,0.006999999999999999,_          0.0838395          4 wl:PPN2012   4 gf:PPN2012   4 PPN2012   4 PPN2012   4 PPN2012   4 PPN2012   4 PPN2012   4 PPN2012   4 PPN2012    (50)TiO,"8s2.9s1.3p4.1d1 X,3,2,0,60,0","8s2.11s1.3p4.1d1 C,3,2,0,61,2",0.5,1.0,1.0
TiO 1,4795.3142,-0.838,0.24413258423734346,61.0,2.8289326795563947,62.0,99.0,99.0,99.0,7.306,0.0,0.0,0.006999999999999999,_          -0.0102623         4 wl:PPN2012   4 gf:PPN2012   4 PPN2012   4 PPN2012   4 PPN2012   4 PPN2012   4 PPN2012   4 PPN2012   4 PPN2012    (50)TiO,"8s2.9s1.3p4.1d1 X,3,2,0,60,0","8s2.11s1.3p4.1d1 C,3,2,0,61,2",0.5,1.0,1.0
TiO 1,4795.3186,0.16399999999999998,1.1430948489029382,40.0,3.7278980810221856,39.0,99.0,99.0,99.0,7.365,0.0,0.0,0.002,_                             6 wl:PPN2012   6 gf:PPN2012   6 PPN2012   6 PPN2012   6 PPN2012   6 PPN2012   6 PPN2012   6 PPN2012   6 PPN2012    (48)TiO,"8s2.9s1.3p4.1d1 a,1,2,0,40,5","8s2.11s1.3p4.1d1 f,1,2,0,39,8",0.5,1.0,1.0
Fe 1,4795.3222,-3.409,4.83485503271695,1.0,7.419656256292198,2.0,0.49,0.91,1.11,8.3,-4.01,-7.18,0.009000000000000001,_          Kurucz Fe I 2014   5 wl:K14   5 gf:K14   5 K14   5 K14   5 K14   5 K14   5 K14   5 K14   5 K14    Fe,3d7.(4F).4p y3D*,3d6.4s.(6D<5/2>).6d 2[5/2],0.5,1.0,1.0
TiO 1,4795.325,-0.662,0.8136487879800792,80.0,3.3984485113465377,80.0,99.0,99.0,99.0,7.313,0.0,0.0,0.001,_                             6 wl:PPN2012   6 gf:PPN2012   6 PPN2012   6 PPN2012   6 PPN2012   6 PPN2012   6 PPN2012   6 PPN2012   6 PPN2012    (48)TiO,"8s2.9s1.3p4.1d1 X,3,2,-,81,3","8s2.3p4.4p1.1d1 B,3,1,+,81,7",0.5,1.0,1.0
TiO 1,4795.3371,-0.622,0.27976026167608786,63.0,2.8645890469384336,64.0,99.0,99.0,99.0,7.303999999999999,0.0,0.0,0.01,_          0.0660004          3 wl:PPN2012   3 gf:PPN2012   3 PPN2012   3 PPN2012   3 PPN2012   3 PPN2012   3 PPN2012   3 PPN2012   3 PPN2012    (46)TiO,"8s2.9s1.3p4.1d1 X,3,2,0,63,0","8s2.11s1.3p4.1d1 C,3,2,0,64,2",0.5,1.0,1.0
MgH 1,4795.3383,-2.084,0.004269271855686361,2.5,2.5890618165371113,3.5,99.0,99.0,99.0,7.39,0.0,0.0,0.026000000000000002,_                            18 wl:KMGH  18 gf:KMGH  18 KMGH  18 KMGH  18 KMGH  18 KMGH  18 KMGH  18 KMGH  18 KMGH    (24)MgH,"4s2.5s1 X,2,0,e,2,0","4s2.2p1 A,2,1,e,3,1",0.5,1.0,1.0
TiO 1,4795.3862,-1.003,0.1372990712095799,41.0,2.7221165739099558,40.0,99.0,99.0,99.0,7.32,0.0,0.0,0.006999999999999999,_          0.0939760          8 wl:PPN2012   8 gf:PPN2012   8 PPN2012   8 PPN2012   8 PPN2012   8 PPN2012   8 PPN2012   8 PPN2012   8 PPN2012    (49)TiO,"8s2.9s1.3p4.1d1 X,3,2,0,42,0","8s2.11s1.3p4.1d1 C,3,2,0,41,2",0.5,1.0,1.0
MgH 1,4795.4129,-1.526,0.18580668582305174,3.5,2.7705590596244964,3.5,99.0,99.0,99.0,7.39,0.0,0.0,0.049,_                            18 wl:KMGH  18 gf:KMGH  18 KMGH  18 KMGH  18 KMGH  18 KMGH  18 KMGH  18 KMGH  18 KMGH    (24)MgH,"4s2.5s1 X,2,0,e,3,1","4s2.2p1 A,2,1,f,3,2",0.5,1.0,1.0
TiO 1,4795.4401,-0.5329999999999999,0.8645783718990312,87.0,3.451573260278538,88.0,99.0,99.0,99.0,7.272,0.0,0.0,0.001,_          4.18406            3 wl:PPN2012   3 gf:PPN2012   3 PPN2012   3 PPN2012   3 PPN2012   3 PPN2012   3 PPN2012   3 PPN2012   3 PPN2012    (46)TiO,"8s2.9s1.3p4.1d1 X,3,2,0,86,3","8s2.11s1.3p4.1d1 C,3,2,0,87,6",0.5,1.0,1.0
TiO 1,4795.4454,0.478,1.3992168414182602,86.0,3.983951733447862,87.0,99.0,99.0,99.0,7.346,0.0,0.0,0.002,_                             6 wl:PPN2012   6 gf:PPN2012   6 PPN2012   6 PPN2012   6 PPN2012   6 PPN2012   6 PPN2012   6 PPN2012   6 PPN2012    (48)TiO,"8s2.9s1.3p4.1d1 a,1,2,0,86,4","8s2.11s1.3p4.1d1 f,1,2,0,87,7",0.5,1.0,1.0
Ca 1,4795.4471,-1.655,4.5541398075566875,1.0,7.13887370771271,2.0,1.01,1.04,1.05,7.68,-4.49,-7.15,0.033,_      A   Kurucz CaI 2007   27 wl:K07  27 gf:K07  27 K07  27 K07  27 K07  27 K07  27 K07  27 K07  27 K07    Ca,3p6.4s.5p 1P*,3p6.3d.5d 1D,0.5,1.0,1.0
TiO 1,4795.4503,-0.778,0.14937332187388724,45.0,2.7341512240215913,44.0,99.0,99.0,99.0,7.318,0.0,0.0,0.012,_          0.0847007          3 wl:PPN2012   3 gf:PPN2012   3 PPN2012   3 PPN2012   3 PPN2012   3 PPN2012   3 PPN2012   3 PPN2012   3 PPN2012    (46)TiO,"8s2.9s1.3p4.1d1 X,3,2,0,45,0","8s2.11s1.3p4.1d1 C,3,2,0,44,2",0.5,1.0,1.0
TiO 1,4795.4553,-0.595,0.7346730859071626,73.0,3.3186195500266322,72.0,99.0,99.0,99.0,7.287000000000001,0.0,0.0,0.002,_          -1.45324           3 wl:PPN2012   3 gf:PPN2012   3 PPN2012   3 PPN2012   3 PPN2012   3 PPN2012   3 PPN2012   3 PPN2012   3 PPN2012    (46)TiO,"8s2.9s1.3p4.1d1 X,3,2,0,73,3","8s2.11s1.3p4.1d1 C,3,2,0,72,6",0.5,1.0,1.0