species,wlcent,gflog,excit,j_lo,e_upp,j_up,lande_lower,lande_upper,lande,gamrad,gamqst,gamvw,depth,reference,term_lower,term_upper,error,atom_number,ionization
Cr 1,4730.8473,-3.508,2.987165899783077,2.0,5.60719388549613,2.0,1.5,0.99,1.25,7.21,-6.18,-7.79,0.044000000000000004,_          Kurucz Cr I 2016  10 wl:K16  10 gf:K16  10 K16  10 K16  10 K16  10 K16  10 K16  10 K16  10 K16    Cr,3d4.4s2 a3P,3d4.(a3F).4s.4p.(3P*) x5F*,0.5,1.0,1.0
TiO 1,4730.8606,-1.0,0.5069513724058786,42.0,3.1271488941105523,43.0,99.0,99.0,99.0,7.308,0.0,0.0,0.002,_          0.319443           4 wl:PPN2012   4 gf:PPN2012   4 PPN2012   4 PPN2012   4 PPN2012   4 PPN2012   4 PPN2012   4 PPN2012   4 PPN2012    (50)TiO,"8s2.9s1.3p4.1d1 X,3,2,0,43,3","8s2.11s1.3p4.1d1 C,3,2,0,44,6",0.5,1.0,1.0
Fe 2,4730.8695,-6.773,2.641855155709274,1.5,5.2618708669867775,0.5,0.84,-0.65,1.21,8.54,-6.58,-7.9,0.001,_          Kurucz FeII 2013  20 wl:K13  20 gf:K13  20 K13  20 K13  20 K13  20 K13  20 K13  20 K13  20 K13    Fe+,3p6.3d7 a2D2,3d6.(5D).4p z6F*,0.5,1.0,2.0
C2 1,4730.8717,-0.522,0.30097597880564536,32.0,2.9209904502411743,31.0,99.0,99.0,99.0,6.77,0.0,0.0,0.009000000000000001,_                             9 wl:BBSB   9 gf:BBSB   9 BBSB   9 BBSB   9 BBSB   9 BBSB   9 BBSB   9 BBSB   9 BBSB    (12)C(12)C,"2sg2.2su2.3sg1.1pu3 a,3,1,f,33,0,g","2sg2.2su1.3sg1.1pu3/2sg2.2su2.3sg1.1pg1.1pu2 d,3,1,f,32,1,g",0.5,1.0,1.0
TiO 1,4730.8727,-0.779,0.5129041884837526,64.0,3.13106084350913,63.0,99.0,99.0,99.0,7.2989999999999995,0.0,0.0,0.003,_          -3.35603           8 wl:PPN2012   8 gf:PPN2012   8 PPN2012   8 PPN2012   8 PPN2012   8 PPN2012   8 PPN2012   8 PPN2012   8 PPN2012    (49)TiO,"8s2.9s1.3p4.1d1 X,3,2,0,63,2","8s2.11s1.3p4.1d1 C,3,2,0,62,5",0.5,1.0,1.0
TiO 1,4730.8767,-0.016,0.9135538160848171,52.0,3.533565497875903,51.0,99.0,99.0,99.0,7.285,0.0,0.0,0.004,_                             6 wl:PPN2012   6 gf:PPN2012   6 PPN2012   6 PPN2012   6 PPN2012   6 PPN2012   6 PPN2012   6 PPN2012   6 PPN2012    (48)TiO,"8s2.9s1.3p4.1d1 X,3,2,0,52,6","8s2.11s1.3p4.1d1 C,3,2,0,51,10",0.5,1.0,1.0
TiO 1,4730.8771,-0.57,0.6069787481166801,84.0,3.227043705917419,83.0,99.0,99.0,99.0,7.2829999999999995,0.0,0.0,0.003,_          0.0965078          3 wl:PPN2012   3 gf:PPN2012   3 PPN2012   3 PPN2012   3 PPN2012   3 PPN2012   3 PPN2012   3 PPN2012   3 PPN2012    (46)TiO,"8s2.9s1.3p4.1d1 X,3,2,0,84,1","8s2.11s1.3p4.1d1 C,3,2,0,83,4",0.5,1.0,1.0
Pr 2,4730.8783,-2.7319999999999998,0.5501874747692158,8.0,3.170198321030795,7.0,1.25,1.07,1.88,0.0,0.0,0.0,0.025,"_          Pr 2: DREAM data  52 wl:BLQS  52 gf:BLQS  52 BLQS  52 BLQS  52 BLQS  52 BLQS  52 BLQS  52 BLQS  52 BLQS   hfs:RIRS,RIRS Pr+","4f3.(4I*<15/2>).6s.<1/2> (15/2,1/2)*",4f3.(4I*).6p 5K,0.5,1.0,2.0
Th 2,4730.881,-3.287,0.0,1.5,2.6200091401150374,1.5,0.64,1.24,0.94,0.0,0.0,0.0,0.009000000000000001,E0.104     Lund exp.          7 wl:NZL   7 gf:NZL   7 NZL   7 NZL   7 NZL   7 NZL   7 NZL   7 NZL   7 NZL    Th+,6d2.(3F).7s 4F,5f.6d.(1P).7s 2P*,1.2705741052085415,1.0,2.0
TiO 1,4730.8859,-0.6829999999999999,0.6999981526354577,84.0,3.314114460227357,85.0,99.0,99.0,99.0,7.278,0.0,0.0,0.002,_          -10.6603           4 wl:PPN2012   4 gf:PPN2012   4 PPN2012   4 PPN2012   4 PPN2012   4 PPN2012   4 PPN2012   4 PPN2012   4 PPN2012    (50)TiO,"8s2.9s1.3p4.1d1 X,3,2,0,83,2","8s2.11s1.3p4.1d1 C,3,2,0,84,5",0.5,1.0,1.0
TiO 1,4730.9082,0.19,0.5200455418754147,46.0,3.1398556625566734,47.0,99.0,99.0,99.0,7.306,0.0,0.0,0.027000000000000003,_          -0.332507          6 wl:PPN2012   6 gf:PPN2012   6 PPN2012   6 PPN2012   6 PPN2012   6 PPN2012   6 PPN2012   6 PPN2012   6 PPN2012    (48)TiO,"8s2.9s1.3p4.1d1 X,3,2,0,46,3","8s2.11s1.3p4.1d1 C,3,2,0,47,6",0.5,1.0,1.0
TiO 1,4730.9085,-0.818,0.5008011486887928,61.0,3.1207338277492505,60.0,99.0,99.0,99.0,7.301,0.0,0.0,0.003,_          -0.110897          4 wl:PPN2012   4 gf:PPN2012   4 PPN2012   4 PPN2012   4 PPN2012   4 PPN2012   4 PPN2012   4 PPN2012   4 PPN2012    (50)TiO,"8s2.9s1.3p4.1d1 X,3,2,0,61,2","8s2.11s1.3p4.1d1 C,3,2,0,60,5",0.5,1.0,1.0
TiO 1,4730.9095,-0.66,0.7973029593540126,102.0,3.414957379192278,103.0,99.0,99.0,99.0,7.257999999999999,0.0,0.0,0.001,_          -4.22770           8 wl:PPN2012   8 gf:PPN2012   8 PPN2012   8 PPN2012   8 PPN2012   8 PPN2012   8 PPN2012   8 PPN2012   8 PPN2012    (49)TiO,"8s2.9s1.3p4.1d1 X,3,2,0,101,1","8s2.11s1.3p4.1d1 C,3,2,0,102,4",0.5,1.0,1.0
Pr 2,4730.9311,-2.676,0.5502438355057018,8.0,3.170225418645041,7.0,1.25,1.07,1.88,0.0,0.0,0.0,0.025,"_          Pr 2: DREAM data  52 wl:BLQS  52 gf:BLQS  52 BLQS  52 BLQS  52 BLQS  52 BLQS  52 BLQS  52 BLQS  52 BLQS   hfs:RIRS,RIRS Pr+","4f3.(4I*<15/2>).6s.<1/2> (15/2,1/2)*",4f3.(4I*).6p 5K,0.5,1.0,2.0
TiO 1,4730.9408,-0.782,0.5903558148092677,82.0,3.210307327069321,81.0,99.0,99.0,99.0,7.284,0.0,0.0,0.002,_          -0.0444596         4 wl:PPN2012   4 gf:PPN2012   4 PPN2012   4 PPN2012   4 PPN2012   4 PPN2012   4 PPN2012   4 PPN2012   4 PPN2012    (50)TiO,"8s2.9s1.3p4.1d1 X,3,2,0,83,1","8s2.11s1.3p4.1d1 C,3,2,0,82,4",0.5,1.0,1.0
TiO 1,4730.9424,0.182,0.501319886172588,45.0,3.1217393395907336,46.0,99.0,99.0,99.0,7.306,0.0,0.0,0.027999999999999997,_          0.801944           6 wl:PPN2012   6 gf:PPN2012   6 PPN2012   6 PPN2012   6 PPN2012   6 PPN2012   6 PPN2012   6 PPN2012   6 PPN2012    (48)TiO,"8s2.9s1.3p4.1d1 X,3,2,0,44,3","8s2.11s1.3p4.1d1 C,3,2,0,45,6",0.5,1.0,1.0
TiO 1,4730.9544,0.322,1.157341563073737,90.0,3.7773102471451403,91.0,99.0,99.0,99.0,7.257000000000001,0.0,0.0,0.003,_                             6 wl:PPN2012   6 gf:PPN2012   6 PPN2012   6 PPN2012   6 PPN2012   6 PPN2012   6 PPN2012   6 PPN2012   6 PPN2012    (48)TiO,"8s2.9s1.3p4.1d1 X,3,2,0,91,5","8s2.11s1.3p4.1d1 C,3,2,0,92,9",0.5,1.0,1.0
TiO 1,4730.956,0.49700000000000005,1.3342022559172697,129.0,3.9441427633399555,128.0,99.0,99.0,99.0,7.2139999999999995,0.0,0.0,0.002,_          -18.1765           6 wl:PPN2012   6 gf:PPN2012   6 PPN2012   6 PPN2012   6 PPN2012   6 PPN2012   6 PPN2012   6 PPN2012   6 PPN2012    (48)TiO,"8s2.9s1.3p4.1d1 X,3,2,0,129,2","8s2.11s1.3p4.1d1 C,3,2,0,128,6",0.5,1.0,1.0
TiO 1,4730.9904,0.325,1.1525931294900877,91.0,3.772541938894636,92.0,99.0,99.0,99.0,7.256,0.0,0.0,0.003,_                             6 wl:PPN2012   6 gf:PPN2012   6 PPN2012   6 PPN2012   6 PPN2012   6 PPN2012   6 PPN2012   6 PPN2012   6 PPN2012    (48)TiO,"8s2.9s1.3p4.1d1 X,3,2,0,91,5","8s2.11s1.3p4.1d1 C,3,2,0,92,9",0.5,1.0,1.0
TiO 1,4731.0008,0.115,0.9457660760390124,64.0,3.565709020991021,63.0,99.0,99.0,99.0,7.374,0.0,0.0,0.004,_                             6 wl:PPN2012   6 gf:PPN2012   6 PPN2012   6 PPN2012   6 PPN2012   6 PPN2012   6 PPN2012   6 PPN2012   6 PPN2012    (48)TiO,"8s2.9s1.3p4.1d1 a,1,2,0,64,2","8s2.11s1.3p4.1d1 f,1,2,0,63,5",0.5,1.0,1.0
TiO 1,4731.0051,-0.797,0.5278545749672929,47.0,3.1476030631039893,48.0,99.0,99.0,99.0,7.305,0.0,0.0,0.003,_          -0.346870          2 wl:PPN2012   2 gf:PPN2012   2 PPN2012   2 PPN2012   2 PPN2012   2 PPN2012   2 PPN2012   2 PPN2012   2 PPN2012    (47)TiO,"8s2.9s1.3p4.1d1 X,3,2,0,47,3","8s2.11s1.3p4.1d1 C,3,2,0,48,6",0.5,1.0,1.0
TiO 1,4731.0122,0.461,0.7966327379777483,99.0,3.416434898873529,100.0,99.0,99.0,99.0,7.2620000000000005,0.0,0.0,0.018000000000000002,_          -0.242941          6 wl:PPN2012   6 gf:PPN2012   6 PPN2012   6 PPN2012   6 PPN2012   6 PPN2012   6 PPN2012   6 PPN2012   6 PPN2012    (48)TiO,"8s2.9s1.3p4.1d1 X,3,2,0,100,1","8s2.11s1.3p4.1d1 C,3,2,0,101,4",0.5,1.0,1.0
TiO 1,4731.0167,0.242,1.034048416325049,60.0,3.6539826699848144,61.0,99.0,99.0,99.0,7.367999999999999,0.0,0.0,0.004,_                             6 wl:PPN2012   6 gf:PPN2012   6 PPN2012   6 PPN2012   6 PPN2012   6 PPN2012   6 PPN2012   6 PPN2012   6 PPN2012    (48)TiO,"8s2.9s1.3p4.1d1 a,1,2,0,60,3","8s2.11s1.3p4.1d1 f,1,2,0,61,6",0.5,1.0,1.0
TiO 1,4731.024,-0.381,0.9501062916524912,73.0,3.5700364414353203,73.0,99.0,99.0,99.0,7.449,0.0,0.0,0.001,_                             6 wl:PPN2012   6 gf:PPN2012   6 PPN2012   6 PPN2012   6 PPN2012   6 PPN2012   6 PPN2012   6 PPN2012   6 PPN2012    (48)TiO,"8s2.9s1.3p4.1d1 X,3,2,+,72,5","8s2.3p4.4p1.1d1 B,3,1,-,72,9",0.5,1.0,1.0
TiO 1,4731.026,-0.7909999999999999,0.6882193315168822,102.0,3.3081158567853577,101.0,99.0,99.0,99.0,7.263,0.0,0.0,0.001,_          -0.0588133         3 wl:PPN2012   3 gf:PPN2012   3 PPN2012   3 PPN2012   3 PPN2012   3 PPN2012   3 PPN2012   3 PPN2012   3 PPN2012    (46)TiO,"8s2.9s1.3p4.1d1 X,3,2,0,101,0","8s2.11s1.3p4.1d1 C,3,2,0,100,3",0.5,1.0,1.0
TiO 1,4731.0265,0.028999999999999998,0.8925119495969521,38.0,3.51244069835835,37.0,99.0,99.0,99.0,7.377999999999999,0.0,0.0,0.005,_                             6 wl:PPN2012   6 gf:PPN2012   6 PPN2012   6 PPN2012   6 PPN2012   6 PPN2012   6 PPN2012   6 PPN2012   6 PPN2012    (48)TiO,"8s2.9s1.3p4.1d1 a,1,2,0,38,3","8s2.11s1.3p4.1d1 f,1,2,0,37,6",0.5,1.0,1.0
TiO 1,4731.0321,-0.635,0.5252989135016808,65.0,3.143254441361922,64.0,99.0,99.0,99.0,7.297999999999999,0.0,0.0,0.004,_          -3.56042           2 wl:PPN2012   2 gf:PPN2012   2 PPN2012   2 PPN2012   2 PPN2012   2 PPN2012   2 PPN2012   2 PPN2012   2 PPN2012    (47)TiO,"8s2.9s1.3p4.1d1 X,3,2,0,64,2","8s2.11s1.3p4.1d1 C,3,2,0,63,5",0.5,1.0,1.0
TiO 1,4731.038,-0.6940000000000001,0.6557822510174144,78.0,3.275615135197328,79.0,99.0,99.0,99.0,7.284,0.0,0.0,0.002,_          -0.161818          8 wl:PPN2012   8 gf:PPN2012   8 PPN2012   8 PPN2012   8 PPN2012   8 PPN2012   8 PPN2012   8 PPN2012   8 PPN2012    (49)TiO,"8s2.9s1.3p4.1d1 X,3,2,0,78,2","8s2.11s1.3p4.1d1 C,3,2,0,79,5",0.5,1.0,1.0
Fe 1,4731.041,-4.73,4.075810881448294,4.0,6.695731620830536,3.0,1.26,1.65,0.68,8.33,-4.86,-7.51,0.005,_          Kurucz Fe I 2014   5 wl:K14   5 gf:K14   5 K14   5 K14   5 K14   5 K14   5 K14   5 K14   5 K14    Fe,3d8 c3F,3d6.(3D).4s.4p.(3P*) t5P*,0.5,1.0,1.0
TiO 1,4731.0488,-0.777,0.5853280200318789,83.0,3.2053002252544904,82.0,99.0,99.0,99.0,7.284,0.0,0.0,0.002,_          0.100759           4 wl:PPN2012   4 gf:PPN2012   4 PPN2012   4 PPN2012   4 PPN2012   4 PPN2012   4 PPN2012   4 PPN2012   4 PPN2012    (50)TiO,"8s2.9s1.3p4.1d1 X,3,2,0,83,1","8s2.11s1.3p4.1d1 C,3,2,0,82,4",0.5,1.0,1.0
TiO 1,4731.0612,0.069,1.027564253570497,67.0,3.6474738715702255,68.0,99.0,99.0,99.0,7.273,0.0,0.0,0.003,_                             6 wl:PPN2012   6 gf:PPN2012   6 PPN2012   6 PPN2012   6 PPN2012   6 PPN2012   6 PPN2012   6 PPN2012   6 PPN2012    (48)TiO,"8s2.9s1.3p4.1d1 X,3,2,0,67,6","8s2.11s1.3p4.1d1 C,3,2,0,68,10",0.5,1.0,1.0
Ce 2,4731.0828,-1.17,1.3647931249274694,1.5,3.9846906792647836,2.5,0.58,1.01,1.33,0.0,0.0,0.0,0.061,C-0.170    Ce 2: DREAM data  15 wl:PQWB  15 gf:PQWB  15 PQWB  15 PQWB  15 PQWB  15 PQWB  15 PQWB  15 PQWB  15 PQWB    Ce+,4f.(2F*).5d2.(3P) 4F*,4f.6s.(3F*).6p 4f.6s.(3F*).6p,0.17,1.0,2.0
TiO 1,4731.0842,0.474,0.7165579531895182,85.0,3.3303082842273257,86.0,99.0,99.0,99.0,7.277,0.0,0.0,0.025,_          -11.1259           6 wl:PPN2012   6 gf:PPN2012   6 PPN2012   6 PPN2012   6 PPN2012   6 PPN2012   6 PPN2012   6 PPN2012   6 PPN2012    (48)TiO,"8s2.9s1.3p4.1d1 X,3,2,0,84,2","8s2.11s1.3p4.1d1 C,3,2,0,85,5",0.5,1.0,1.0
TiO 1,4731.091,-0.805,0.5088938576244826,46.0,3.12923182862805,47.0,99.0,99.0,99.0,7.306,0.0,0.0,0.003,_          0.803241           2 wl:PPN2012   2 gf:PPN2012   2 PPN2012   2 PPN2012   2 PPN2012   2 PPN2012   2 PPN2012   2 PPN2012   2 PPN2012    (47)TiO,"8s2.9s1.3p4.1d1 X,3,2,0,45,3","8s2.11s1.3p4.1d1 C,3,2,0,46,6",0.5,1.0,1.0
TiO 1,4731.1003,-0.7440000000000001,0.5359353070295073,48.0,3.1556213691227772,49.0,99.0,99.0,99.0,7.305,0.0,0.0,0.003,_          -0.364587          3 wl:PPN2012   3 gf:PPN2012   3 PPN2012   3 PPN2012   3 PPN2012   3 PPN2012   3 PPN2012   3 PPN2012   3 PPN2012    (46)TiO,"8s2.9s1.3p4.1d1 X,3,2,0,48,3","8s2.11s1.3p4.1d1 C,3,2,0,49,6",0.5,1.0,1.0
TiO 1,4731.103,0.26,1.3881728250444112,93.0,4.008059220803953,93.0,99.0,99.0,99.0,7.615,0.0,0.0,0.001,_                             6 wl:PPN2012   6 gf:PPN2012   6 PPN2012   6 PPN2012   6 PPN2012   6 PPN2012   6 PPN2012   6 PPN2012   6 PPN2012    (48)TiO,"8s2.9s1.3p4.1d1 X,3,2,+,92,7","8s2.3p4.4p1.1d1 B,3,1,-,92,10",0.5,1.0,1.0
V 1,4731.1101,-2.623,3.0658642072995943,2.5,5.685746686026386,2.5,1.86,1.65,1.76,7.8,-4.71,-7.3,0.022000000000000002,"_          Kurucz V I 2009   19 wl:K09  19 gf:K09  19 K09  19 K09  19 K09  19 K09  19 K09  19 K09  19 K09   hfs:PBAG,PBQD V",3d4.(5D).4p z6P*,3d4.(5D).6s 6D,0.5,1.0,1.0
V 1,4731.1105,-2.4419999999999997,3.0658636072160785,2.5,5.685745830039487,2.5,1.86,1.65,1.76,7.8,-4.71,-7.3,0.022000000000000002,"_          Kurucz V I 2009   19 wl:K09  19 gf:K09  19 K09  19 K09  19 K09  19 K09  19 K09  19 K09  19 K09   hfs:PBAG,PBQD V",3d4.(5D).4p z6P*,3d4.(5D).6s 6D,0.5,1.0,1.0
V 1,4731.1109,-2.411,3.065863127149266,2.5,5.685745116634415,2.5,1.86,1.65,1.76,7.8,-4.71,-7.3,0.022000000000000002,"_          Kurucz V I 2009   19 wl:K09  19 gf:K09  19 K09  19 K09  19 K09  19 K09  19 K09  19 K09  19 K09   hfs:PBAG,PBQD V",3d4.(5D).4p z6P*,3d4.(5D).6s 6D,0.5,1.0,1.0
V 1,4731.1113,-2.475,3.0658627670991567,2.5,5.685744545935154,2.5,1.86,1.65,1.76,7.8,-4.71,-7.3,0.022000000000000002,"_          Kurucz V I 2009   19 wl:K09  19 gf:K09  19 K09  19 K09  19 K09  19 K09  19 K09  19 K09  19 K09   hfs:PBAG,PBQD V",3d4.(5D).4p z6P*,3d4.(5D).6s 6D,0.5,1.0,1.0
V 1,4731.1114,-1.9240000000000002,3.065864927399813,2.5,5.685746686026386,2.5,1.86,1.65,1.76,7.8,-4.71,-7.3,0.022000000000000002,"_          Kurucz V I 2009   19 wl:K09  19 gf:K09  19 K09  19 K09  19 K09  19 K09  19 K09  19 K09  19 K09   hfs:PBAG,PBQD V",3d4.(5D).4p z6P*,3d4.(5D).6s 6D,0.5,1.0,1.0
V 1,4731.1116,-2.2159999999999997,3.0658642072995943,2.5,5.685745830039487,2.5,1.86,1.65,1.76,7.8,-4.71,-7.3,0.022000000000000002,"_          Kurucz V I 2009   19 wl:K09  19 gf:K09  19 K09  19 K09  19 K09  19 K09  19 K09  19 K09  19 K09   hfs:PBAG,PBQD V",3d4.(5D).4p z6P*,3d4.(5D).6s 6D,0.5,1.0,1.0
V 1,4731.1117,-2.674,3.0658625270657502,2.5,5.68574411781772,2.5,1.86,1.65,1.76,7.8,-4.71,-7.3,0.022000000000000002,"_          Kurucz V I 2009   19 wl:K09  19 gf:K09  19 K09  19 K09  19 K09  19 K09  19 K09  19 K09  19 K09   hfs:PBAG,PBQD V",3d4.(5D).4p z6P*,3d4.(5D).6s 6D,0.5,1.0,1.0
V 1,4731.1118,-2.622,3.0658636072160785,2.5,5.685745116634415,2.5,1.86,1.65,1.76,7.8,-4.71,-7.3,0.022000000000000002,"_          Kurucz V I 2009   19 wl:K09  19 gf:K09  19 K09  19 K09  19 K09  19 K09  19 K09  19 K09  19 K09   hfs:PBAG,PBQD V",3d4.(5D).4p z6P*,3d4.(5D).6s 6D,0.5,1.0,1.0
V 1,4731.112,-3.339,3.065863127149266,2.5,5.685744545935154,2.5,1.86,1.65,1.76,7.8,-4.71,-7.3,0.022000000000000002,"_          Kurucz V I 2009   19 wl:K09  19 gf:K09  19 K09  19 K09  19 K09  19 K09  19 K09  19 K09  19 K09   hfs:PBAG,PBQD V",3d4.(5D).4p z6P*,3d4.(5D).6s 6D,0.5,1.0,1.0
V 1,4731.1121,-4.582,3.0658627670991567,2.5,5.68574411781772,2.5,1.86,1.65,1.76,7.8,-4.71,-7.3,0.022000000000000002,"_          Kurucz V I 2009   19 wl:K09  19 gf:K09  19 K09  19 K09  19 K09  19 K09  19 K09  19 K09  19 K09   hfs:PBAG,PBQD V",3d4.(5D).4p z6P*,3d4.(5D).6s 6D,0.5,1.0,1.0
V 1,4731.1122,-2.929,3.0658625270657502,2.5,5.685743832530082,2.5,1.86,1.65,1.76,7.8,-4.71,-7.3,0.022000000000000002,"_          Kurucz V I 2009   19 wl:K09  19 gf:K09  19 K09  19 K09  19 K09  19 K09  19 K09  19 K09  19 K09   hfs:PBAG,PBQD V",3d4.(5D).4p z6P*,3d4.(5D).6s 6D,0.5,1.0,1.0
V 1,4731.1126,-2.674,3.0658627670991567,2.5,5.685743832530082,2.5,1.86,1.65,1.76,7.8,-4.71,-7.3,0.022000000000000002,"_          Kurucz V I 2009   19 wl:K09  19 gf:K09  19 K09  19 K09  19 K09  19 K09  19 K09  19 K09  19 K09   hfs:PBAG,PBQD V",3d4.(5D).4p z6P*,3d4.(5D).6s 6D,0.5,1.0,1.0
V 1,4731.1127,-2.475,3.065863127149266,2.5,5.68574411781772,2.5,1.86,1.65,1.76,7.8,-4.71,-7.3,0.022000000000000002,"_          Kurucz V I 2009   19 wl:K09  19 gf:K09  19 K09  19 K09  19 K09  19 K09  19 K09  19 K09  19 K09   hfs:PBAG,PBQD V",3d4.(5D).4p z6P*,3d4.(5D).6s 6D,0.5,1.0,1.0
V 1,4731.1128,-2.411,3.0658636072160785,2.5,5.685744545935154,2.5,1.86,1.65,1.76,7.8,-4.71,-7.3,0.022000000000000002,"_          Kurucz V I 2009   19 wl:K09  19 gf:K09  19 K09  19 K09  19 K09  19 K09  19 K09  19 K09  19 K09   hfs:PBAG,PBQD V",3d4.(5D).4p z6P*,3d4.(5D).6s 6D,0.5,1.0,1.0
V 1,4731.1129,-2.4419999999999997,3.0658642072995943,2.5,5.685745116634415,2.5,1.86,1.65,1.76,7.8,-4.71,-7.3,0.022000000000000002,"_          Kurucz V I 2009   19 wl:K09  19 gf:K09  19 K09  19 K09  19 K09  19 K09  19 K09  19 K09  19 K09   hfs:PBAG,PBQD V",3d4.(5D).4p z6P*,3d4.(5D).6s 6D,0.5,1.0,1.0
V 1,4731.1129,-2.623,3.065864927399813,2.5,5.685745830039487,2.5,1.86,1.65,1.76,7.8,-4.71,-7.3,0.022000000000000002,"_          Kurucz V I 2009   19 wl:K09  19 gf:K09  19 K09  19 K09  19 K09  19 K09  19 K09  19 K09  19 K09   hfs:PBAG,PBQD V",3d4.(5D).4p z6P*,3d4.(5D).6s 6D,0.5,1.0,1.0
Zr 1,4731.123,-2.13,0.6228234574134119,2.0,3.2426988185793792,1.0,0.98,0.49,1.23,0.0,0.0,0.0,0.396,_          Cu 1 - Ba 2 Bell  17 wl:CB  17 gf:CB  17 CB  17 CB  17 CB  17 CB  17 CB  17 CB  17 CB    Zr,4d3.(b4F).5s a5F,4d2.5s.(a2P).5p x3D*,0.5,1.0,1.0
TiO 1,4731.1558,0.155,0.6852391853543914,101.0,3.3051272177053406,100.0,99.0,99.0,99.0,7.263999999999999,0.0,0.0,0.013000000000000001,_          0.0556444          6 wl:PPN2012   6 gf:PPN2012   6 PPN2012   6 PPN2012   6 PPN2012   6 PPN2012   6 PPN2012   6 PPN2012   6 PPN2012    (48)TiO,"8s2.9s1.3p4.1d1 X,3,2,0,101,0","8s2.11s1.3p4.1d1 C,3,2,0,100,3",0.5,1.0,1.0
Ti 1,4731.1643,-0.43,2.174706132655156,3.0,4.794558556744591,4.0,1.34,1.25,1.12,8.29,-5.6,-7.63,0.8959999999999999,E0.04      Kurucz TiI 2016   22 wl:K16  24 gf:LGWSC  22 K16  22 K16  22 K16  22 K16  22 K16  22 K16  22 K16    Ti,3d3.(2D2).4s a3D,3d3.(2G).4p t3F*,1.096478196143185,1.0,1.0
TiO 1,4731.1649,-0.023,0.9203540393555599,51.0,3.5402062154766,50.0,99.0,99.0,99.0,7.285,0.0,0.0,0.003,_                             6 wl:PPN2012   6 gf:PPN2012   6 PPN2012   6 PPN2012   6 PPN2012   6 PPN2012   6 PPN2012   6 PPN2012   6 PPN2012    (48)TiO,"8s2.9s1.3p4.1d1 X,3,2,0,52,6","8s2.11s1.3p4.1d1 C,3,2,0,51,10",0.5,1.0,1.0
TiO 1,4731.1659,0.557,1.4135756992956705,128.0,4.02846044854507,129.0,99.0,99.0,99.0,7.21,0.0,0.0,0.002,_          -8.98666           6 wl:PPN2012   6 gf:PPN2012   6 PPN2012   6 PPN2012   6 PPN2012   6 PPN2012   6 PPN2012   6 PPN2012   6 PPN2012    (48)TiO,"8s2.9s1.3p4.1d1 X,3,2,0,127,3","8s2.11s1.3p4.1d1 C,3,2,0,128,7",0.5,1.0,1.0
TiO 1,4731.1748,-0.6990000000000001,0.6610398381063943,77.0,3.280821479617494,78.0,99.0,99.0,99.0,7.285,0.0,0.0,0.002,_          -0.117260          8 wl:PPN2012   8 gf:PPN2012   8 PPN2012   8 PPN2012   8 PPN2012   8 PPN2012   8 PPN2012   8 PPN2012   8 PPN2012    (49)TiO,"8s2.9s1.3p4.1d1 X,3,2,0,78,2","8s2.11s1.3p4.1d1 C,3,2,0,79,5",0.5,1.0,1.0
TiO 1,4731.1948,-0.373,0.9891586481953356,74.0,3.608994260027594,74.0,99.0,99.0,99.0,7.454,0.0,0.0,0.001,_                             6 wl:PPN2012   6 gf:PPN2012   6 PPN2012   6 PPN2012   6 PPN2012   6 PPN2012   6 PPN2012   6 PPN2012   6 PPN2012    (48)TiO,"8s2.9s1.3p4.1d1 X,3,2,+,75,5","8s2.3p4.4p1.1d1 B,3,1,-,75,9",0.5,1.0,1.0
TiO 1,4731.2152,0.436,1.079269482628822,96.0,3.699093700313333,95.0,99.0,99.0,99.0,7.257000000000001,0.0,0.0,0.006,_                             6 wl:PPN2012   6 gf:PPN2012   6 PPN2012   6 PPN2012   6 PPN2012   6 PPN2012   6 PPN2012   6 PPN2012   6 PPN2012    (48)TiO,"8s2.9s1.3p4.1d1 X,3,2,0,95,4","8s2.11s1.3p4.1d1 C,3,2,0,94,8",0.5,1.0,1.0
TiO 1,4731.2207,0.341,0.5124980162528405,62.0,3.132260018667061,61.0,99.0,99.0,99.0,7.3,0.0,0.0,0.039,_          -0.107023          6 wl:PPN2012   6 gf:PPN2012   6 PPN2012   6 PPN2012   6 PPN2012   6 PPN2012   6 PPN2012   6 PPN2012   6 PPN2012    (48)TiO,"8s2.9s1.3p4.1d1 X,3,2,0,62,2","8s2.11s1.3p4.1d1 C,3,2,0,61,5",0.5,1.0,1.0
Ca 1,4731.2223,-1.4909999999999999,4.7435267850500855,3.0,7.363347097232375,2.0,1.33,1.38,1.29,7.96,-4.47,-6.99,0.027000000000000003,_      A   Kurucz CaI 2007   27 wl:K07  27 gf:K07  27 K07  27 K07  27 K07  27 K07  27 K07  27 K07  27 K07    Ca,3p6.3d.4p 3D*,3p6.3d.6d 3P,0.5,1.0,1.0