species,wlcent,gflog,excit,j_lo,e_upp,j_up,lande_lower,lande_upper,lande,gamrad,gamqst,gamvw,depth,reference,term_lower,term_upper,error,atom_number,ionization
TiO 1,4795.4608,-0.8009999999999999,0.7144533586327221,72.0,3.298445709303675,71.0,99.0,99.0,99.0,7.287999999999999,0.0,0.0,0.001,_          -1.36268           4 wl:PPN2012   4 gf:PPN2012   4 PPN2012   4 PPN2012   4 PPN2012   4 PPN2012   4 PPN2012   4 PPN2012   4 PPN2012    (50)TiO,"8s2.9s1.3p4.1d1 X,3,2,0,72,3","8s2.11s1.3p4.1d1 C,3,2,0,71,6",0.5,1.0,1.0
TiO 1,4795.4778,0.165,0.1292099206203574,44.0,2.713947999043834,43.0,99.0,99.0,99.0,7.318,0.0,0.0,0.11,_          0.0382917          6 wl:PPN2012   6 gf:PPN2012   6 PPN2012   6 PPN2012   6 PPN2012   6 PPN2012   6 PPN2012   6 PPN2012   6 PPN2012    (48)TiO,"8s2.9s1.3p4.1d1 X,3,2,0,43,0","8s2.11s1.3p4.1d1 C,3,2,0,42,2",0.5,1.0,1.0
TiO 1,4795.4946,0.218,1.2996880309623258,85.0,3.8843963903736687,85.0,99.0,99.0,99.0,7.58,0.0,0.0,0.001,_                             6 wl:PPN2012   6 gf:PPN2012   6 PPN2012   6 PPN2012   6 PPN2012   6 PPN2012   6 PPN2012   6 PPN2012   6 PPN2012    (48)TiO,"8s2.9s1.3p4.1d1 X,3,2,-,84,7","8s2.3p4.4p1.1d1 B,3,1,+,84,10",0.5,1.0,1.0
Co 1,4801.7011,-3.68,3.40920527704021,2.5,5.99057273309773,3.5,1.2,1.17,1.14,8.11,-5.96,-7.73,0.037000000000000005,"_          Kurucz CoI 2008   12 wl:K08  12 gf:K08  12 K08  12 K08  12 K08  12 K08  12 K08  12 K08  12 K08   hfs:P,P Co",3p6.3d9 c2D,3p6.3d7.(2H).4s.4p.(3P*) 4G*,0.5,1.0,1.0
V 1,4801.7037,-5.379,1.0509184553453557,1.5,3.6322845061659823,2.5,1.19,1.76,2.19,8.25,-6.02,-7.74,0.023,"_          Kurucz V I 2009   19 wl:K09  19 gf:K09  19 K09  19 K09  19 K09  19 K09  19 K09  19 K09  19 K09   hfs:UBDE,GYDE V",3d4.(5D).4s a4D,3d3.(4P).4s.4p.(3P*) y6P*,0.5,1.0,1.0
V 1,4801.704,-5.345,1.0509185779657269,1.5,3.6322845061659823,2.5,1.19,1.76,2.19,8.25,-6.02,-7.74,0.023,"_          Kurucz V I 2009   19 wl:K09  19 gf:K09  19 K09  19 K09  19 K09  19 K09  19 K09  19 K09  19 K09   hfs:UBDE,GYDE V",3d4.(5D).4s a4D,3d3.(4P).4s.4p.(3P*) y6P*,0.5,1.0,1.0
V 1,4801.7043,-6.371,1.0509187403850253,1.5,3.6322845061659823,2.5,1.19,1.76,2.19,8.25,-6.02,-7.74,0.023,"_          Kurucz V I 2009   19 wl:K09  19 gf:K09  19 K09  19 K09  19 K09  19 K09  19 K09  19 K09  19 K09   hfs:UBDE,GYDE V",3d4.(5D).4s a4D,3d3.(4P).4s.4p.(3P*) y6P*,0.5,1.0,1.0
Co 1,4801.7127,-3.324,4.148874834481096,2.5,6.730236072111194,3.5,1.19,1.16,1.13,8.12,-4.45,-7.52,0.001,"_          Kurucz CoI 2008   12 wl:K08  12 gf:K08  12 K08  12 K08  12 K08  12 K08  12 K08  12 K08  12 K08   hfs:GUKL,GUES Co",3p6.3d7.(4F).4s.4p.(3P*) z2D*,3p6.3d7.4s.(5F).4d f4D,0.5,1.0,1.0
TiO 1,4801.7146,-0.691,0.7526625854375105,77.0,3.3340228507835303,77.0,99.0,99.0,99.0,7.308,0.0,0.0,0.001,_                             6 wl:PPN2012   6 gf:PPN2012   6 PPN2012   6 PPN2012   6 PPN2012   6 PPN2012   6 PPN2012   6 PPN2012   6 PPN2012    (48)TiO,"8s2.9s1.3p4.1d1 X,3,2,+,76,3","8s2.3p4.4p1.1d1 B,3,1,-,76,7",0.5,1.0,1.0
V 1,4801.7157,-5.818,1.0509183676885279,1.5,3.6322780048066194,2.5,1.19,1.76,2.19,8.25,-6.02,-7.74,0.023,"_          Kurucz V I 2009   19 wl:K09  19 gf:K09  19 K09  19 K09  19 K09  19 K09  19 K09  19 K09  19 K09   hfs:UBDE,GYDE V",3d4.(5D).4s a4D,3d3.(4P).4s.4p.(3P*) y6P*,0.5,1.0,1.0
V 1,4801.7158,-5.353,1.0509184553453557,1.5,3.6322780048066194,2.5,1.19,1.76,2.19,8.25,-6.02,-7.74,0.023,"_          Kurucz V I 2009   19 wl:K09  19 gf:K09  19 K09  19 K09  19 K09  19 K09  19 K09  19 K09  19 K09   hfs:UBDE,GYDE V",3d4.(5D).4s a4D,3d3.(4P).4s.4p.(3P*) y6P*,0.5,1.0,1.0
V 1,4801.7161,-5.943,1.0509185779657269,1.5,3.6322780048066194,2.5,1.19,1.76,2.19,8.25,-6.02,-7.74,0.023,"_          Kurucz V I 2009   19 wl:K09  19 gf:K09  19 K09  19 K09  19 K09  19 K09  19 K09  19 K09  19 K09   hfs:UBDE,GYDE V",3d4.(5D).4s a4D,3d3.(4P).4s.4p.(3P*) y6P*,0.5,1.0,1.0
Co 1,4801.7167,-3.145,3.409190278299889,2.5,5.990549358356981,3.5,1.2,1.17,1.14,8.11,-5.96,-7.73,0.037000000000000005,"_          Kurucz CoI 2008   12 wl:K08  12 gf:K08  12 K08  12 K08  12 K08  12 K08  12 K08  12 K08  12 K08   hfs:P,P Co",3p6.3d9 c2D,3p6.3d7.(2H).4s.4p.(3P*) 4G*,0.5,1.0,1.0
Sc 1,4801.7179,-3.089,1.943152253586367,1.5,4.524510683966264,0.5,0.43,2.63,-0.13,7.54,-5.72,-7.83,0.003,_          Kurucz ScI 2009   23 wl:K09  23 gf:K09  23 K09  23 K09  23 K09  23 K09  23 K09  23 K09  23 K09    Sc,3d.4s.(3D).4p 4F*,3d3 4P,0.5,1.0,1.0
Co 1,4801.7231,-3.465,4.14886308263894,2.5,6.730218702297081,3.5,1.19,1.16,1.13,8.12,-4.45,-7.52,0.001,"_          Kurucz CoI 2008   12 wl:K08  12 gf:K08  12 K08  12 K08  12 K08  12 K08  12 K08  12 K08  12 K08   hfs:GUKL,GUES Co",3p6.3d7.(4F).4s.4p.(3P*) z2D*,3p6.3d7.4s.(5F).4d f4D,0.5,1.0,1.0
V 1,4801.7247,-5.517,1.0509183676885279,1.5,3.632273128880086,2.5,1.19,1.76,2.19,8.25,-6.02,-7.74,0.023,"_          Kurucz V I 2009   19 wl:K09  19 gf:K09  19 K09  19 K09  19 K09  19 K09  19 K09  19 K09  19 K09   hfs:UBDE,GYDE V",3d4.(5D).4s a4D,3d3.(4P).4s.4p.(3P*) y6P*,0.5,1.0,1.0
V 1,4801.7249,-5.693,1.0509184553453557,1.5,3.632273128880086,2.5,1.19,1.76,2.19,8.25,-6.02,-7.74,0.023,"_          Kurucz V I 2009   19 wl:K09  19 gf:K09  19 K09  19 K09  19 K09  19 K09  19 K09  19 K09  19 K09   hfs:UBDE,GYDE V",3d4.(5D).4s a4D,3d3.(4P).4s.4p.(3P*) y6P*,0.5,1.0,1.0
Co 1,4801.7296,-3.484,3.4091972288539996,2.5,5.990549358356981,3.5,1.2,1.17,1.14,8.11,-5.96,-7.73,0.037000000000000005,"_          Kurucz CoI 2008   12 wl:K08  12 gf:K08  12 K08  12 K08  12 K08  12 K08  12 K08  12 K08  12 K08   hfs:P,P Co",3p6.3d9 c2D,3p6.3d7.(2H).4s.4p.(3P*) 4G*,0.5,1.0,1.0
V 1,4801.7308,-5.517,1.0509183676885279,1.5,3.6322698782623966,2.5,1.19,1.76,2.19,8.25,-6.02,-7.74,0.023,"_          Kurucz V I 2009   19 wl:K09  19 gf:K09  19 K09  19 K09  19 K09  19 K09  19 K09  19 K09  19 K09   hfs:UBDE,GYDE V",3d4.(5D).4s a4D,3d3.(4P).4s.4p.(3P*) y6P*,0.5,1.0,1.0
Co 1,4801.7328,-3.6289999999999996,4.148853357566458,2.5,6.730203813902695,3.5,1.19,1.16,1.13,8.12,-4.45,-7.52,0.001,"_          Kurucz CoI 2008   12 wl:K08  12 gf:K08  12 K08  12 K08  12 K08  12 K08  12 K08  12 K08  12 K08   hfs:GUKL,GUES Co",3p6.3d7.(4F).4s.4p.(3P*) z2D*,3p6.3d7.4s.(5F).4d f4D,0.5,1.0,1.0
TiO 1,4801.7349,-0.493,0.8446029182904463,93.0,3.4258222384007824,92.0,99.0,99.0,99.0,7.269,0.0,0.0,0.002,_          -0.241964          2 wl:PPN2012   2 gf:PPN2012   2 PPN2012   2 PPN2012   2 PPN2012   2 PPN2012   2 PPN2012   2 PPN2012   2 PPN2012    (47)TiO,"8s2.9s1.3p4.1d1 X,3,2,0,94,2","8s2.11s1.3p4.1d1 C,3,2,0,93,5",0.5,1.0,1.0
TiO 1,4801.7387,-0.785,0.17378020627002966,49.0,2.755171256892282,48.0,99.0,99.0,99.0,7.316,0.0,0.0,0.011000000000000001,_          0.0814220          2 wl:PPN2012   2 gf:PPN2012   2 PPN2012   2 PPN2012   2 PPN2012   2 PPN2012   2 PPN2012   2 PPN2012   2 PPN2012    (47)TiO,"8s2.9s1.3p4.1d1 X,3,2,0,49,0","8s2.11s1.3p4.1d1 C,3,2,0,48,2",0.5,1.0,1.0
TiO 1,4801.74,-0.932,0.165684496916761,48.0,2.747075336765877,47.0,99.0,99.0,99.0,7.316,0.0,0.0,0.008,_          0.0822677          8 wl:PPN2012   8 gf:PPN2012   8 PPN2012   8 PPN2012   8 PPN2012   8 PPN2012   8 PPN2012   8 PPN2012   8 PPN2012    (49)TiO,"8s2.9s1.3p4.1d1 X,3,2,0,48,0","8s2.11s1.3p4.1d1 C,3,2,0,47,2",0.5,1.0,1.0
Co 1,4801.7414,-3.827,4.148845622192378,2.5,6.730191406804056,3.5,1.19,1.16,1.13,8.12,-4.45,-7.52,0.001,"_          Kurucz CoI 2008   12 wl:K08  12 gf:K08  12 K08  12 K08  12 K08  12 K08  12 K08  12 K08  12 K08   hfs:GUKL,GUES Co",3p6.3d7.(4F).4s.4p.(3P*) z2D*,3p6.3d7.4s.(5F).4d f4D,0.5,1.0,1.0
Co 1,4801.7423,-3.343,3.4091845582889384,2.5,5.9905298793237005,3.5,1.2,1.17,1.14,8.11,-5.96,-7.73,0.037000000000000005,"_          Kurucz CoI 2008   12 wl:K08  12 gf:K08  12 K08  12 K08  12 K08  12 K08  12 K08  12 K08  12 K08   hfs:P,P Co",3p6.3d9 c2D,3p6.3d7.(2H).4s.4p.(3P*) 4G*,0.5,1.0,1.0
Co 1,4801.7446,-4.794,3.40920527704021,2.5,5.990549358356981,3.5,1.2,1.17,1.14,8.11,-5.96,-7.73,0.037000000000000005,"_          Kurucz CoI 2008   12 wl:K08  12 gf:K08  12 K08  12 K08  12 K08  12 K08  12 K08  12 K08  12 K08   hfs:P,P Co",3p6.3d9 c2D,3p6.3d7.(2H).4s.4p.(3P*) 4G*,0.5,1.0,1.0
Co 1,4801.745,-4.164,4.148874834481096,2.5,6.730218702297081,3.5,1.19,1.16,1.13,8.12,-4.45,-7.52,0.001,"_          Kurucz CoI 2008   12 wl:K08  12 gf:K08  12 K08  12 K08  12 K08  12 K08  12 K08  12 K08  12 K08   hfs:GUKL,GUES Co",3p6.3d7.(4F).4s.4p.(3P*) z2D*,3p6.3d7.4s.(5F).4d f4D,0.5,1.0,1.0
Co 1,4801.7492,-4.082,4.148839846760491,2.5,6.730181481249125,3.5,1.19,1.16,1.13,8.12,-4.45,-7.52,0.001,"_          Kurucz CoI 2008   12 wl:K08  12 gf:K08  12 K08  12 K08  12 K08  12 K08  12 K08  12 K08  12 K08   hfs:GUKL,GUES Co",3p6.3d7.(4F).4s.4p.(3P*) z2D*,3p6.3d7.4s.(5F).4d f4D,0.5,1.0,1.0
Co 1,4801.7508,-3.968,4.14886308263894,2.5,6.730203813902695,3.5,1.19,1.16,1.13,8.12,-4.45,-7.52,0.001,"_          Kurucz CoI 2008   12 wl:K08  12 gf:K08  12 K08  12 K08  12 K08  12 K08  12 K08  12 K08  12 K08   hfs:GUKL,GUES Co",3p6.3d7.(4F).4s.4p.(3P*) z2D*,3p6.3d7.4s.(5F).4d f4D,0.5,1.0,1.0
TiO 1,4801.752,-0.581,0.7638712032319208,76.0,3.3442685329098696,75.0,99.0,99.0,99.0,7.285,0.0,0.0,0.002,_          -1.75455           3 wl:PPN2012   3 gf:PPN2012   3 PPN2012   3 PPN2012   3 PPN2012   3 PPN2012   3 PPN2012   3 PPN2012   3 PPN2012    (46)TiO,"8s2.9s1.3p4.1d1 X,3,2,0,76,3","8s2.11s1.3p4.1d1 C,3,2,0,75,6",0.5,1.0,1.0
Co 1,4801.7529,-3.43,3.409190278299889,2.5,5.9905298793237005,3.5,1.2,1.17,1.14,8.11,-5.96,-7.73,0.037000000000000005,"_          Kurucz CoI 2008   12 wl:K08  12 gf:K08  12 K08  12 K08  12 K08  12 K08  12 K08  12 K08  12 K08   hfs:P,P Co",3p6.3d9 c2D,3p6.3d7.(2H).4s.4p.(3P*) 4G*,0.5,1.0,1.0
Co 1,4801.7558,-3.9139999999999997,4.148853357566458,2.5,6.730191406804056,3.5,1.19,1.16,1.13,8.12,-4.45,-7.52,0.001,"_          Kurucz CoI 2008   12 wl:K08  12 gf:K08  12 K08  12 K08  12 K08  12 K08  12 K08  12 K08  12 K08   hfs:GUKL,GUES Co",3p6.3d7.(4F).4s.4p.(3P*) z2D*,3p6.3d7.4s.(5F).4d f4D,0.5,1.0,1.0
Co 1,4801.7559,-4.47,4.148836008953643,2.5,6.7301740369899425,3.5,1.19,1.16,1.13,8.12,-4.45,-7.52,0.001,"_          Kurucz CoI 2008   12 wl:K08  12 gf:K08  12 K08  12 K08  12 K08  12 K08  12 K08  12 K08  12 K08   hfs:GUKL,GUES Co",3p6.3d7.(4F).4s.4p.(3P*) z2D*,3p6.3d7.4s.(5F).4d f4D,0.5,1.0,1.0
Co 1,4801.7599,-3.9360000000000004,4.148845622192378,2.5,6.730181481249125,3.5,1.19,1.16,1.13,8.12,-4.45,-7.52,0.001,"_          Kurucz CoI 2008   12 wl:K08  12 gf:K08  12 K08  12 K08  12 K08  12 K08  12 K08  12 K08  12 K08   hfs:GUKL,GUES Co",3p6.3d7.(4F).4s.4p.(3P*) z2D*,3p6.3d7.4s.(5F).4d f4D,0.5,1.0,1.0
Co 1,4801.763,-4.027,4.148839846760491,2.5,6.7301740369899425,3.5,1.19,1.16,1.13,8.12,-4.45,-7.52,0.001,"_          Kurucz CoI 2008   12 wl:K08  12 gf:K08  12 K08  12 K08  12 K08  12 K08  12 K08  12 K08  12 K08   hfs:GUKL,GUES Co",3p6.3d7.(4F).4s.4p.(3P*) z2D*,3p6.3d7.4s.(5F).4d f4D,0.5,1.0,1.0
Co 1,4801.7631,-3.5980000000000003,3.4091801751995896,2.5,5.990514296121874,3.5,1.2,1.17,1.14,8.11,-5.96,-7.73,0.037000000000000005,"_          Kurucz CoI 2008   12 wl:K08  12 gf:K08  12 K08  12 K08  12 K08  12 K08  12 K08  12 K08  12 K08   hfs:P,P Co",3p6.3d9 c2D,3p6.3d7.(2H).4s.4p.(3P*) 4G*,0.5,1.0,1.0
Co 1,4801.7651,-4.215,4.148836008953643,2.5,6.730169074274469,3.5,1.19,1.16,1.13,8.12,-4.45,-7.52,0.001,"_          Kurucz CoI 2008   12 wl:K08  12 gf:K08  12 K08  12 K08  12 K08  12 K08  12 K08  12 K08  12 K08   hfs:GUKL,GUES Co",3p6.3d7.(4F).4s.4p.(3P*) z2D*,3p6.3d7.4s.(5F).4d f4D,0.5,1.0,1.0
Co 1,4801.7659,-4.3839999999999995,3.4091972288539996,2.5,5.9905298793237005,3.5,1.2,1.17,1.14,8.11,-5.96,-7.73,0.037000000000000005,"_          Kurucz CoI 2008   12 wl:K08  12 gf:K08  12 K08  12 K08  12 K08  12 K08  12 K08  12 K08  12 K08   hfs:P,P Co",3p6.3d9 c2D,3p6.3d7.(2H).4s.4p.(3P*) 4G*,0.5,1.0,1.0
Co 1,4801.7697,-4.5,4.148836008953643,2.5,6.730166592854742,3.5,1.19,1.16,1.13,8.12,-4.45,-7.52,0.001,"_          Kurucz CoI 2008   12 wl:K08  12 gf:K08  12 K08  12 K08  12 K08  12 K08  12 K08  12 K08  12 K08   hfs:GUKL,GUES Co",3p6.3d7.(4F).4s.4p.(3P*) z2D*,3p6.3d7.4s.(5F).4d f4D,0.5,1.0,1.0
MgH 1,4801.7707,-2.276,0.35521584160969183,3.5,2.9365458796083685,2.5,99.0,99.0,99.0,7.06,0.0,0.0,0.005,_                            18 wl:KMGH  18 gf:KMGH  18 KMGH  18 KMGH  18 KMGH  18 KMGH  18 KMGH  18 KMGH  18 KMGH    (24)MgH,"4s2.5s1 X,2,0,e,3,2","4s1.5s2/4s2.7s1/4s2.6s1 B,2,0,e,2,2",0.5,1.0,1.0
MgH 1,4801.7707,-2.431,0.35521584160969183,2.5,2.9365458796083685,1.5,99.0,99.0,99.0,7.06,0.0,0.0,0.003,_                            18 wl:KMGH  18 gf:KMGH  18 KMGH  18 KMGH  18 KMGH  18 KMGH  18 KMGH  18 KMGH  18 KMGH    (24)MgH,"4s2.5s1 X,2,0,f,3,2","4s1.5s2/4s2.7s1/4s2.6s1 B,2,0,f,2,2",0.5,1.0,1.0
Co 1,4801.7713,-3.452,3.4091845582889384,2.5,5.990514296121874,3.5,1.2,1.17,1.14,8.11,-5.96,-7.73,0.037000000000000005,"_          Kurucz CoI 2008   12 wl:K08  12 gf:K08  12 K08  12 K08  12 K08  12 K08  12 K08  12 K08  12 K08   hfs:P,P Co",3p6.3d9 c2D,3p6.3d7.(2H).4s.4p.(3P*) 4G*,0.5,1.0,1.0
Co 1,4801.7722,-4.47,4.148839846760491,2.5,6.730169074274469,3.5,1.19,1.16,1.13,8.12,-4.45,-7.52,0.001,"_          Kurucz CoI 2008   12 wl:K08  12 gf:K08  12 K08  12 K08  12 K08  12 K08  12 K08  12 K08  12 K08   hfs:GUKL,GUES Co",3p6.3d7.(4F).4s.4p.(3P*) z2D*,3p6.3d7.4s.(5F).4d f4D,0.5,1.0,1.0
Co 1,4801.7727,-5.278,4.148874834481096,2.5,6.730203813902695,3.5,1.19,1.16,1.13,8.12,-4.45,-7.52,0.001,"_          Kurucz CoI 2008   12 wl:K08  12 gf:K08  12 K08  12 K08  12 K08  12 K08  12 K08  12 K08  12 K08   hfs:GUKL,GUES Co",3p6.3d7.(4F).4s.4p.(3P*) z2D*,3p6.3d7.4s.(5F).4d f4D,0.5,1.0,1.0
Fe 1,4801.7728,-1.24,4.83485503271695,1.0,7.416183954857849,2.0,0.49,0.72,0.83,8.53,-5.4,-7.42,0.43700000000000006,_          Kurucz Fe I 2014   5 wl:K14   5 gf:K14   5 K14   5 K14   5 K14   5 K14   5 K14   5 K14   5 K14    Fe,3d7.(4F).4p y3D*,3d6.4s.(4D).4d 3F,0.5,1.0,1.0
Co 1,4801.7738,-4.521,4.148845622192378,2.5,6.7301740369899425,3.5,1.19,1.16,1.13,8.12,-4.45,-7.52,0.001,"_          Kurucz CoI 2008   12 wl:K08  12 gf:K08  12 K08  12 K08  12 K08  12 K08  12 K08  12 K08  12 K08   hfs:GUKL,GUES Co",3p6.3d7.(4F).4s.4p.(3P*) z2D*,3p6.3d7.4s.(5F).4d f4D,0.5,1.0,1.0
Co 1,4801.7739,-4.868,4.14886308263894,2.5,6.730191406804056,3.5,1.19,1.16,1.13,8.12,-4.45,-7.52,0.001,"_          Kurucz CoI 2008   12 wl:K08  12 gf:K08  12 K08  12 K08  12 K08  12 K08  12 K08  12 K08  12 K08   hfs:GUKL,GUES Co",3p6.3d7.(4F).4s.4p.(3P*) z2D*,3p6.3d7.4s.(5F).4d f4D,0.5,1.0,1.0
Co 1,4801.7743,-4.646,4.148853357566458,2.5,6.730181481249125,3.5,1.19,1.16,1.13,8.12,-4.45,-7.52,0.001,"_          Kurucz CoI 2008   12 wl:K08  12 gf:K08  12 K08  12 K08  12 K08  12 K08  12 K08  12 K08  12 K08   hfs:GUKL,GUES Co",3p6.3d7.(4F).4s.4p.(3P*) z2D*,3p6.3d7.4s.(5F).4d f4D,0.5,1.0,1.0
Co 1,4801.7794,-3.986,3.409177208877665,2.5,5.990502608751499,3.5,1.2,1.17,1.14,8.11,-5.96,-7.73,0.037000000000000005,"_          Kurucz CoI 2008   12 wl:K08  12 gf:K08  12 K08  12 K08  12 K08  12 K08  12 K08  12 K08  12 K08   hfs:P,P Co",3p6.3d9 c2D,3p6.3d7.(2H).4s.4p.(3P*) 4G*,0.5,1.0,1.0
Co 1,4801.7819,-4.162,3.409190278299889,2.5,5.990514296121874,3.5,1.2,1.17,1.14,8.11,-5.96,-7.73,0.037000000000000005,"_          Kurucz CoI 2008   12 wl:K08  12 gf:K08  12 K08  12 K08  12 K08  12 K08  12 K08  12 K08  12 K08   hfs:P,P Co",3p6.3d9 c2D,3p6.3d7.(2H).4s.4p.(3P*) 4G*,0.5,1.0,1.0
Co 1,4801.7849,-3.543,3.4091801751995896,2.5,5.990502608751499,3.5,1.2,1.17,1.14,8.11,-5.96,-7.73,0.037000000000000005,"_          Kurucz CoI 2008   12 wl:K08  12 gf:K08  12 K08  12 K08  12 K08  12 K08  12 K08  12 K08  12 K08   hfs:P,P Co",3p6.3d9 c2D,3p6.3d7.(2H).4s.4p.(3P*) 4G*,0.5,1.0,1.0
Co 1,4801.793,-4.037,3.4091845582889384,2.5,5.990502608751499,3.5,1.2,1.17,1.14,8.11,-5.96,-7.73,0.037000000000000005,"_          Kurucz CoI 2008   12 wl:K08  12 gf:K08  12 K08  12 K08  12 K08  12 K08  12 K08  12 K08  12 K08   hfs:P,P Co",3p6.3d9 c2D,3p6.3d7.(2H).4s.4p.(3P*) 4G*,0.5,1.0,1.0
Co 1,4801.7939,-3.7310000000000003,3.409177208877665,2.5,5.990494817088593,3.5,1.2,1.17,1.14,8.11,-5.96,-7.73,0.037000000000000005,"_          Kurucz CoI 2008   12 wl:K08  12 gf:K08  12 K08  12 K08  12 K08  12 K08  12 K08  12 K08  12 K08   hfs:P,P Co",3p6.3d9 c2D,3p6.3d7.(2H).4s.4p.(3P*) 4G*,0.5,1.0,1.0
Co 1,4801.7994,-3.986,3.4091801751995896,2.5,5.990494817088593,3.5,1.2,1.17,1.14,8.11,-5.96,-7.73,0.037000000000000005,"_          Kurucz CoI 2008   12 wl:K08  12 gf:K08  12 K08  12 K08  12 K08  12 K08  12 K08  12 K08  12 K08   hfs:P,P Co",3p6.3d9 c2D,3p6.3d7.(2H).4s.4p.(3P*) 4G*,0.5,1.0,1.0
V 2,4801.801,-6.357,2.0497874502947355,5.0,4.631101217227258,5.0,1.16,1.4,1.28,8.39,-6.49,-7.87,0.001,"_          Kurucz V II 2010  16 wl:K10  16 gf:K10  16 K10  16 K10  16 K10  16 K10  16 K10  16 K10  16 K10   hfs:ARH,ARH V+",3d3.(2G).4s b3G,3d3.(4F).4p z5F*,0.5,1.0,2.0
Co 1,4801.8011,-4.016,3.409177208877665,2.5,5.990490921381125,3.5,1.2,1.17,1.14,8.11,-5.96,-7.73,0.037000000000000005,"_          Kurucz CoI 2008   12 wl:K08  12 gf:K08  12 K08  12 K08  12 K08  12 K08  12 K08  12 K08  12 K08   hfs:P,P Co",3p6.3d9 c2D,3p6.3d7.(2H).4s.4p.(3P*) 4G*,0.5,1.0,1.0
V 2,4801.8041,-5.947,2.0497874502947355,5.0,4.631099552367453,5.0,1.16,1.4,1.28,8.39,-6.49,-7.87,0.001,"_          Kurucz V II 2010  16 wl:K10  16 gf:K10  16 K10  16 K10  16 K10  16 K10  16 K10  16 K10  16 K10   hfs:ARH,ARH V+",3d3.(2G).4s b3G,3d3.(4F).4p z5F*,0.5,1.0,2.0
V 2,4801.8063,-6.138,2.049792603449935,5.0,4.631103547882201,5.0,1.16,1.4,1.28,8.39,-6.49,-7.87,0.001,"_          Kurucz V II 2010  16 wl:K10  16 gf:K10  16 K10  16 K10  16 K10  16 K10  16 K10  16 K10  16 K10   hfs:ARH,ARH V+",3d3.(2G).4s b3G,3d3.(4F).4p z5F*,0.5,1.0,2.0
V 2,4801.8106,-5.926,2.049792603449935,5.0,4.631101217227258,5.0,1.16,1.4,1.28,8.39,-6.49,-7.87,0.001,"_          Kurucz V II 2010  16 wl:K10  16 gf:K10  16 K10  16 K10  16 K10  16 K10  16 K10  16 K10  16 K10   hfs:ARH,ARH V+",3d3.(2G).4s b3G,3d3.(4F).4p z5F*,0.5,1.0,2.0
V 2,4801.8137,-6.357,2.049792603449935,5.0,4.631099552367453,5.0,1.16,1.4,1.28,8.39,-6.49,-7.87,0.001,"_          Kurucz V II 2010  16 wl:K10  16 gf:K10  16 K10  16 K10  16 K10  16 K10  16 K10  16 K10  16 K10   hfs:ARH,ARH V+",3d3.(2G).4s b3G,3d3.(4F).4p z5F*,0.5,1.0,2.0
V 2,4801.8141,-6.039,2.049799817842417,5.0,4.631106544580255,5.0,1.16,1.4,1.28,8.39,-6.49,-7.87,0.001,"_          Kurucz V II 2010  16 wl:K10  16 gf:K10  16 K10  16 K10  16 K10  16 K10  16 K10  16 K10  16 K10   hfs:ARH,ARH V+",3d3.(2G).4s b3G,3d3.(4F).4p z5F*,0.5,1.0,2.0
V 2,4801.8197,-5.8260000000000005,2.049799817842417,5.0,4.631103547882201,5.0,1.16,1.4,1.28,8.39,-6.49,-7.87,0.001,"_          Kurucz V II 2010  16 wl:K10  16 gf:K10  16 K10  16 K10  16 K10  16 K10  16 K10  16 K10  16 K10   hfs:ARH,ARH V+",3d3.(2G).4s b3G,3d3.(4F).4p z5F*,0.5,1.0,2.0
V 2,4801.824,-6.138,2.049799817842417,5.0,4.631101217227258,5.0,1.16,1.4,1.28,8.39,-6.49,-7.87,0.001,"_          Kurucz V II 2010  16 wl:K10  16 gf:K10  16 K10  16 K10  16 K10  16 K10  16 K10  16 K10  16 K10   hfs:ARH,ARH V+",3d3.(2G).4s b3G,3d3.(4F).4p z5F*,0.5,1.0,2.0
V 2,4801.8245,-6.001,2.049809093596167,5.0,4.631110207197431,5.0,1.16,1.4,1.28,8.39,-6.49,-7.87,0.001,"_          Kurucz V II 2010  16 wl:K10  16 gf:K10  16 K10  16 K10  16 K10  16 K10  16 K10  16 K10  16 K10   hfs:ARH,ARH V+",3d3.(2G).4s b3G,3d3.(4F).4p z5F*,0.5,1.0,2.0
TiO 1,4801.8306,-0.452,0.9407149970293387,109.0,3.5217936942629042,108.0,99.0,99.0,99.0,7.251,0.0,0.0,0.001,_          -0.407909          3 wl:PPN2012   3 gf:PPN2012   3 PPN2012   3 PPN2012   3 PPN2012   3 PPN2012   3 PPN2012   3 PPN2012   3 PPN2012    (46)TiO,"8s2.9s1.3p4.1d1 X,3,2,0,110,1","8s2.11s1.3p4.1d1 C,3,2,0,109,4",0.5,1.0,1.0
V 2,4801.8314,-5.697,2.049809093596167,5.0,4.631106544580255,5.0,1.16,1.4,1.28,8.39,-6.49,-7.87,0.001,"_          Kurucz V II 2010  16 wl:K10  16 gf:K10  16 K10  16 K10  16 K10  16 K10  16 K10  16 K10  16 K10   hfs:ARH,ARH V+",3d3.(2G).4s b3G,3d3.(4F).4p z5F*,0.5,1.0,2.0