species,wlcent,gflog,excit,j_lo,e_upp,j_up,lande_lower,lande_upper,lande,gamrad,gamqst,gamvw,depth,reference,term_lower,term_upper,error,atom_number,ionization
Al 1,4876.5882,-3.483,3.1427233617472052,0.5,5.684450668051654,1.5,99.0,99.0,99.0,0.0,0.0,0.0,0.33,"_          Al 1 Kurucz NLTE  53 wl:K75  53 gf:K75  53 K75  53 K75  53 K75  53 K75  53 K75  53 K75  53 K75   hfs:JLS,JKLS Al",3s2.4s 2S,3s2.8p 2P*,0.5,1.0,1.0
Al 1,4876.5882,-4.027,3.1427233617472052,0.5,5.684450642386924,1.5,99.0,99.0,99.0,0.0,0.0,0.0,0.33,"_          Al 1 Kurucz NLTE  53 wl:K75  53 gf:K75  53 K75  53 K75  53 K75  53 K75  53 K75  53 K75  53 K75   hfs:JLS,JKLS Al",3s2.4s 2S,3s2.8p 2P*,0.5,1.0,1.0
TiO 1,4876.6006,-0.184,0.6893653174540987,15.0,3.231086210675932,14.0,99.0,99.0,99.0,7.397,0.0,0.0,0.006,_                             6 wl:PPN2012   6 gf:PPN2012   6 PPN2012   6 PPN2012   6 PPN2012   6 PPN2012   6 PPN2012   6 PPN2012   6 PPN2012    (48)TiO,"8s2.9s1.3p4.1d1 a,1,2,0,15,2","8s2.11s1.3p4.1d1 f,1,2,0,14,4",0.5,1.0,1.0
TiO 1,4876.6062,-0.10099999999999999,1.2069296751713214,87.0,3.7486477043581936,86.0,99.0,99.0,99.0,7.492999999999999,0.0,0.0,0.001,_                             6 wl:PPN2012   6 gf:PPN2012   6 PPN2012   6 PPN2012   6 PPN2012   6 PPN2012   6 PPN2012   6 PPN2012   6 PPN2012    (48)TiO,"8s2.9s1.3p4.1d1 X,3,2,+,86,6","8s2.3p4.4p1.1d1 B,3,1,-,85,9",0.5,1.0,1.0
TiO 1,4876.6091,-0.698,0.47610745164864265,55.0,3.017842193905334,56.0,99.0,99.0,99.0,7.306,0.0,0.0,0.004,_          0.0351421          3 wl:PPN2012   3 gf:PPN2012   3 PPN2012   3 PPN2012   3 PPN2012   3 PPN2012   3 PPN2012   3 PPN2012   3 PPN2012    (46)TiO,"8s2.9s1.3p4.1d1 X,3,2,0,56,2","8s2.11s1.3p4.1d1 C,3,2,0,57,4",0.5,1.0,1.0
Fe 1,4876.6146,-4.86,4.142648902541477,3.0,6.68436251789092,2.0,1.07,1.24,0.89,7.81,-4.17,-7.53,0.003,_          Kurucz Fe I 2014   5 wl:K14   5 gf:K14   5 K14   5 K14   5 K14   5 K14   5 K14   5 K14   5 K14    Fe,3d8 c3F,3d6.(3D).4s.4p.(3P*) 5D*,0.5,1.0,1.0
TiO 1,4876.6156,-0.273,1.1297772971048203,89.0,3.671490478509571,90.0,99.0,99.0,99.0,7.41,0.0,0.0,0.001,_                             6 wl:PPN2012   6 gf:PPN2012   6 PPN2012   6 PPN2012   6 PPN2012   6 PPN2012   6 PPN2012   6 PPN2012   6 PPN2012    (48)TiO,"8s2.9s1.3p4.1d1 X,3,2,+,89,5","8s2.3p4.4p1.1d1 B,3,1,-,90,8",0.5,1.0,1.0
TiO 1,4876.6162,-0.84,0.3623391305037825,39.0,2.904029659995656,38.0,99.0,99.0,99.0,7.317,0.0,0.0,0.005,_          -0.0426551         3 wl:PPN2012   3 gf:PPN2012   3 PPN2012   3 PPN2012   3 PPN2012   3 PPN2012   3 PPN2012   3 PPN2012   3 PPN2012    (46)TiO,"8s2.9s1.3p4.1d1 X,3,2,0,39,2","8s2.11s1.3p4.1d1 C,3,2,0,38,4",0.5,1.0,1.0
TiO 1,4876.6261,-0.5579999999999999,0.9471570051567508,77.0,3.488864731256813,78.0,99.0,99.0,99.0,7.379,0.0,0.0,0.001,_                             2 wl:PPN2012   2 gf:PPN2012   2 PPN2012   2 PPN2012   2 PPN2012   2 PPN2012   2 PPN2012   2 PPN2012   2 PPN2012    (47)TiO,"8s2.9s1.3p4.1d1 a,1,2,0,77,1","8s2.11s1.3p4.1d1 f,1,2,0,78,3",0.5,1.0,1.0
TiO 1,4876.6278,-0.584,0.7350598050174917,105.0,3.276776991111821,106.0,99.0,99.0,99.0,7.257000000000001,0.0,0.0,0.002,_          0.0198874          8 wl:PPN2012   8 gf:PPN2012   8 PPN2012   8 PPN2012   8 PPN2012   8 PPN2012   8 PPN2012   8 PPN2012   8 PPN2012    (49)TiO,"8s2.9s1.3p4.1d1 X,3,2,0,105,0","8s2.11s1.3p4.1d1 C,3,2,0,106,2",0.5,1.0,1.0
TiO 1,4876.634,-0.8740000000000001,0.4509896542626263,56.0,2.992692619369506,57.0,99.0,99.0,99.0,7.306,0.0,0.0,0.003,_          -0.00119984        8 wl:PPN2012   8 gf:PPN2012   8 PPN2012   8 PPN2012   8 PPN2012   8 PPN2012   8 PPN2012   8 PPN2012   8 PPN2012    (49)TiO,"8s2.9s1.3p4.1d1 X,3,2,0,55,2","8s2.11s1.3p4.1d1 C,3,2,0,56,4",0.5,1.0,1.0
TiO 1,4876.6398,-0.733,0.7403024148154174,53.0,3.2820029250351865,52.0,99.0,99.0,99.0,7.393,0.0,0.0,0.002,_                             2 wl:PPN2012   2 gf:PPN2012   2 PPN2012   2 PPN2012   2 PPN2012   2 PPN2012   2 PPN2012   2 PPN2012   2 PPN2012    (47)TiO,"8s2.9s1.3p4.1d1 a,1,2,0,53,1","8s2.11s1.3p4.1d1 f,1,2,0,52,3",0.5,1.0,1.0
TiO 1,4876.6544,-0.899,0.45567112398122184,55.0,2.997403398952383,56.0,99.0,99.0,99.0,7.307,0.0,0.0,0.003,_          0.0755430          4 wl:PPN2012   4 gf:PPN2012   4 PPN2012   4 PPN2012   4 PPN2012   4 PPN2012   4 PPN2012   4 PPN2012   4 PPN2012    (50)TiO,"8s2.9s1.3p4.1d1 X,3,2,0,55,2","8s2.11s1.3p4.1d1 C,3,2,0,56,4",0.5,1.0,1.0
TiO 1,4876.6725,-0.581,0.5937756337328269,85.0,3.135468233760798,86.0,99.0,99.0,99.0,7.282,0.0,0.0,0.004,_          0.0173690          8 wl:PPN2012   8 gf:PPN2012   8 PPN2012   8 PPN2012   8 PPN2012   8 PPN2012   8 PPN2012   8 PPN2012   8 PPN2012    (49)TiO,"8s2.9s1.3p4.1d1 X,3,2,0,84,1","8s2.11s1.3p4.1d1 C,3,2,0,85,3",0.5,1.0,1.0
TiO 1,4876.715,-0.8290000000000001,0.6633878136428244,64.0,3.205049157254613,64.0,99.0,99.0,99.0,7.291,0.0,0.0,0.002,_                             6 wl:PPN2012   6 gf:PPN2012   6 PPN2012   6 PPN2012   6 PPN2012   6 PPN2012   6 PPN2012   6 PPN2012   6 PPN2012    (48)TiO,"8s2.9s1.3p4.1d1 X,3,2,+,65,3","8s2.3p4.4p1.1d1 B,3,1,-,65,7",0.5,1.0,1.0
TiO 1,4876.7219,-1.033,0.3413537140210257,38.0,2.8830230174182923,37.0,99.0,99.0,99.0,7.318,0.0,0.0,0.003,_          0.0222144          8 wl:PPN2012   8 gf:PPN2012   8 PPN2012   8 PPN2012   8 PPN2012   8 PPN2012   8 PPN2012   8 PPN2012   8 PPN2012    (49)TiO,"8s2.9s1.3p4.1d1 X,3,2,0,37,2","8s2.11s1.3p4.1d1 C,3,2,0,36,4",0.5,1.0,1.0
TiO 1,4876.7267,-0.73,0.4617310872025495,57.0,3.0033788173494558,58.0,99.0,99.0,99.0,7.305,0.0,0.0,0.004,_          -0.0144789         2 wl:PPN2012   2 gf:PPN2012   2 PPN2012   2 PPN2012   2 PPN2012   2 PPN2012   2 PPN2012   2 PPN2012   2 PPN2012    (47)TiO,"8s2.9s1.3p4.1d1 X,3,2,0,56,2","8s2.11s1.3p4.1d1 C,3,2,0,57,4",0.5,1.0,1.0
TiO 1,4876.7428,-0.665,0.5063460443585702,88.0,3.047977297005633,87.0,99.0,99.0,99.0,7.282,0.0,0.0,0.004,_          -0.0298065         8 wl:PPN2012   8 gf:PPN2012   8 PPN2012   8 PPN2012   8 PPN2012   8 PPN2012   8 PPN2012   8 PPN2012   8 PPN2012    (49)TiO,"8s2.9s1.3p4.1d1 X,3,2,0,87,0","8s2.11s1.3p4.1d1 C,3,2,0,86,2",0.5,1.0,1.0
TiO 1,4876.7478,-0.621,0.7576109807348396,48.0,3.2992552021289576,48.0,99.0,99.0,99.0,7.388,0.0,0.0,0.002,_                             6 wl:PPN2012   6 gf:PPN2012   6 PPN2012   6 PPN2012   6 PPN2012   6 PPN2012   6 PPN2012   6 PPN2012   6 PPN2012    (48)TiO,"8s2.9s1.3p4.1d1 X,3,2,-,47,5","8s2.3p4.4p1.1d1 B,3,1,+,47,9",0.5,1.0,1.0
TiO 1,4876.753,-0.726,0.7878050507194555,41.0,3.329446594054908,42.0,99.0,99.0,99.0,7.39,0.0,0.0,0.001,_                             2 wl:PPN2012   2 gf:PPN2012   2 PPN2012   2 PPN2012   2 PPN2012   2 PPN2012   2 PPN2012   2 PPN2012   2 PPN2012    (47)TiO,"8s2.9s1.3p4.1d1 a,1,2,0,41,2","8s2.11s1.3p4.1d1 f,1,2,0,42,4",0.5,1.0,1.0
TiO 1,4876.7628,-0.695,0.4156298942761951,67.0,2.9573237713414,66.0,99.0,99.0,99.0,7.301,0.0,0.0,0.005,_          0.110150           4 wl:PPN2012   4 gf:PPN2012   4 PPN2012   4 PPN2012   4 PPN2012   4 PPN2012   4 PPN2012   4 PPN2012   4 PPN2012    (50)TiO,"8s2.9s1.3p4.1d1 X,3,2,0,66,1","8s2.11s1.3p4.1d1 C,3,2,0,65,3",0.5,1.0,1.0
TiO 1,4876.7654,-1.087,0.3509281457022614,35.0,2.8925597579034967,34.0,99.0,99.0,99.0,7.319,0.0,0.0,0.003,_          -0.00668299        4 wl:PPN2012   4 gf:PPN2012   4 PPN2012   4 PPN2012   4 PPN2012   4 PPN2012   4 PPN2012   4 PPN2012   4 PPN2012    (50)TiO,"8s2.9s1.3p4.1d1 X,3,2,0,36,2","8s2.11s1.3p4.1d1 C,3,2,0,35,4",0.5,1.0,1.0
TiO 1,4876.7825,0.457,0.43350679135840064,67.0,2.975212955257575,66.0,99.0,99.0,99.0,7.301,0.0,0.0,0.069,_          0.153450           6 wl:PPN2012   6 gf:PPN2012   6 PPN2012   6 PPN2012   6 PPN2012   6 PPN2012   6 PPN2012   6 PPN2012   6 PPN2012    (48)TiO,"8s2.9s1.3p4.1d1 X,3,2,0,67,1","8s2.11s1.3p4.1d1 C,3,2,0,66,3",0.5,1.0,1.0
TiO 1,4876.7862,-0.48700000000000004,0.5353155348231936,87.0,3.0770015016965995,86.0,99.0,99.0,99.0,7.2829999999999995,0.0,0.0,0.005,_          0.118444           3 wl:PPN2012   3 gf:PPN2012   3 PPN2012   3 PPN2012   3 PPN2012   3 PPN2012   3 PPN2012   3 PPN2012   3 PPN2012    (46)TiO,"8s2.9s1.3p4.1d1 X,3,2,0,88,0","8s2.11s1.3p4.1d1 C,3,2,0,87,2",0.5,1.0,1.0
Fe 1,4876.7921,-6.336,2.4241982933823185,1.0,4.965819416520448,2.0,1.5,2.34,2.76,6.26,-6.29,-7.82,0.03,_          Kurucz Fe I 2014   5 wl:K14   5 gf:K14   5 K14   5 K14   5 K14   5 K14   5 K14   5 K14   5 K14    Fe,3d6.4s2 a3P2,3d5.(6S).4s2.4p y7P*,0.5,1.0,1.0
TiO 1,4876.7921,-0.863,0.36491424508997783,37.0,2.906534388752947,36.0,99.0,99.0,99.0,7.318,0.0,0.0,0.004,_          -0.00192183        3 wl:PPN2012   3 gf:PPN2012   3 PPN2012   3 PPN2012   3 PPN2012   3 PPN2012   3 PPN2012   3 PPN2012   3 PPN2012    (46)TiO,"8s2.9s1.3p4.1d1 X,3,2,0,38,2","8s2.11s1.3p4.1d1 C,3,2,0,37,4",0.5,1.0,1.0
TiO 1,4876.7957,0.077,0.3577190453613544,36.0,2.8993361142162266,35.0,99.0,99.0,99.0,7.318,0.0,0.0,0.039,_          -0.00425324        6 wl:PPN2012   6 gf:PPN2012   6 PPN2012   6 PPN2012   6 PPN2012   6 PPN2012   6 PPN2012   6 PPN2012   6 PPN2012    (48)TiO,"8s2.9s1.3p4.1d1 X,3,2,0,37,2","8s2.11s1.3p4.1d1 C,3,2,0,36,4",0.5,1.0,1.0
TiO 1,4876.8003,-0.884,0.3486579082576451,39.0,2.8902884913900415,38.0,99.0,99.0,99.0,7.317,0.0,0.0,0.004,_          0.0261779          2 wl:PPN2012   2 gf:PPN2012   2 PPN2012   2 PPN2012   2 PPN2012   2 PPN2012   2 PPN2012   2 PPN2012   2 PPN2012    (47)TiO,"8s2.9s1.3p4.1d1 X,3,2,0,38,2","8s2.11s1.3p4.1d1 C,3,2,0,37,4",0.5,1.0,1.0
TiO 1,4876.8012,0.26,0.46615300840216106,56.0,3.0078116243616053,57.0,99.0,99.0,99.0,7.306,0.0,0.0,0.039,_          0.0809990          6 wl:PPN2012   6 gf:PPN2012   6 PPN2012   6 PPN2012   6 PPN2012   6 PPN2012   6 PPN2012   6 PPN2012   6 PPN2012    (48)TiO,"8s2.9s1.3p4.1d1 X,3,2,0,56,2","8s2.11s1.3p4.1d1 C,3,2,0,57,4",0.5,1.0,1.0
TiO 1,4876.804,0.235,1.1756824338197152,101.0,3.7172974321384897,102.0,99.0,99.0,99.0,7.251,0.0,0.0,0.003,_                             6 wl:PPN2012   6 gf:PPN2012   6 PPN2012   6 PPN2012   6 PPN2012   6 PPN2012   6 PPN2012   6 PPN2012   6 PPN2012    (48)TiO,"8s2.9s1.3p4.1d1 X,3,2,0,102,4","8s2.11s1.3p4.1d1 C,3,2,0,103,7",0.5,1.0,1.0
Al 1,4876.819,-2.9939999999999998,3.142721185328603,0.5,5.684328050284023,0.5,99.0,99.0,99.0,0.0,0.0,0.0,0.20199999999999999,_          Al 1 Kurucz NLTE  53 wl:K75  53 gf:K75  53 K75  53 K75  53 K75  53 K75  53 K75  53 K75  53 K75    Al,3s2.4s 2S,3s2.8p 2P*,0.5,1.0,1.0
TiO 1,4876.8248,-0.88,0.7307864540817086,52.0,3.2723905541895255,51.0,99.0,99.0,99.0,7.394,0.0,0.0,0.001,_                             8 wl:PPN2012   8 gf:PPN2012   8 PPN2012   8 PPN2012   8 PPN2012   8 PPN2012   8 PPN2012   8 PPN2012   8 PPN2012    (49)TiO,"8s2.9s1.3p4.1d1 a,1,2,0,52,1","8s2.11s1.3p4.1d1 f,1,2,0,51,3",0.5,1.0,1.0
TiO 1,4876.8305,0.35200000000000004,1.339336565518705,144.0,3.880285570322349,143.0,99.0,99.0,99.0,7.192,0.0,0.0,0.002,_          -1.25175           6 wl:PPN2012   6 gf:PPN2012   6 PPN2012   6 PPN2012   6 PPN2012   6 PPN2012   6 PPN2012   6 PPN2012   6 PPN2012    (48)TiO,"8s2.9s1.3p4.1d1 X,3,2,0,143,0","8s2.11s1.3p4.1d1 C,3,2,0,142,3",0.5,1.0,1.0
TiO 1,4876.8415,-0.10099999999999999,1.2069296751713214,87.0,3.7485250839868955,86.0,99.0,99.0,99.0,7.492999999999999,0.0,0.0,0.001,_                             6 wl:PPN2012   6 gf:PPN2012   6 PPN2012   6 PPN2012   6 PPN2012   6 PPN2012   6 PPN2012   6 PPN2012   6 PPN2012    (48)TiO,"8s2.9s1.3p4.1d1 X,3,2,-,86,6","8s2.3p4.4p1.1d1 B,3,1,+,85,9",0.5,1.0,1.0
TiO 1,4876.8472,-0.545,0.4411496360319899,66.0,2.982783802307693,65.0,99.0,99.0,99.0,7.3020000000000005,0.0,0.0,0.006999999999999999,_          0.0800669          2 wl:PPN2012   2 gf:PPN2012   2 PPN2012   2 PPN2012   2 PPN2012   2 PPN2012   2 PPN2012   2 PPN2012   2 PPN2012    (47)TiO,"8s2.9s1.3p4.1d1 X,3,2,0,67,1","8s2.11s1.3p4.1d1 C,3,2,0,66,3",0.5,1.0,1.0
TiO 1,4876.895,0.11699999999999999,1.2800101270292492,68.0,3.821577565009874,68.0,99.0,99.0,99.0,7.561,0.0,0.0,0.001,_                             6 wl:PPN2012   6 gf:PPN2012   6 PPN2012   6 PPN2012   6 PPN2012   6 PPN2012   6 PPN2012   6 PPN2012   6 PPN2012    (48)TiO,"8s2.9s1.3p4.1d1 X,3,2,+,69,8","8s2.3p4.4p1.1d1 B,3,1,-,69,11",0.5,1.0,1.0
TiO 1,4876.8956,-0.602,0.7315526764220739,105.0,3.2731302439116323,106.0,99.0,99.0,99.0,7.257000000000001,0.0,0.0,0.002,_          0.0198874          4 wl:PPN2012   4 gf:PPN2012   4 PPN2012   4 PPN2012   4 PPN2012   4 PPN2012   4 PPN2012   4 PPN2012   4 PPN2012    (50)TiO,"8s2.9s1.3p4.1d1 X,3,2,0,105,0","8s2.11s1.3p4.1d1 C,3,2,0,106,2",0.5,1.0,1.0
TiO 1,4876.8973,-0.396,0.7423841838814592,106.0,3.2839006271616644,107.0,99.0,99.0,99.0,7.256,0.0,0.0,0.003,_          -0.0957848         3 wl:PPN2012   3 gf:PPN2012   3 PPN2012   3 PPN2012   3 PPN2012   3 PPN2012   3 PPN2012   3 PPN2012   3 PPN2012    (46)TiO,"8s2.9s1.3p4.1d1 X,3,2,0,105,0","8s2.11s1.3p4.1d1 C,3,2,0,106,2",0.5,1.0,1.0
TiO 1,4876.92,-0.488,0.4318323599747271,68.0,2.9734448166174534,67.0,99.0,99.0,99.0,7.3,0.0,0.0,0.008,_          0.111236           3 wl:PPN2012   3 gf:PPN2012   3 PPN2012   3 PPN2012   3 PPN2012   3 PPN2012   3 PPN2012   3 PPN2012   3 PPN2012    (46)TiO,"8s2.9s1.3p4.1d1 X,3,2,0,67,1","8s2.11s1.3p4.1d1 C,3,2,0,66,3",0.5,1.0,1.0
TiO 1,4876.9212,-0.685,0.47718842027270575,57.0,3.0187873254426485,58.0,99.0,99.0,99.0,7.305,0.0,0.0,0.004,_          0.0862541          3 wl:PPN2012   3 gf:PPN2012   3 PPN2012   3 PPN2012   3 PPN2012   3 PPN2012   3 PPN2012   3 PPN2012   3 PPN2012    (46)TiO,"8s2.9s1.3p4.1d1 X,3,2,0,57,2","8s2.11s1.3p4.1d1 C,3,2,0,58,4",0.5,1.0,1.0
TiO 1,4876.9438,-0.86,0.6108748027411418,61.0,3.152416873554964,61.0,99.0,99.0,99.0,7.287000000000001,0.0,0.0,0.002,_                             6 wl:PPN2012   6 gf:PPN2012   6 PPN2012   6 PPN2012   6 PPN2012   6 PPN2012   6 PPN2012   6 PPN2012   6 PPN2012    (48)TiO,"8s2.9s1.3p4.1d1 X,3,2,-,60,3","8s2.3p4.4p1.1d1 B,3,1,+,60,7",0.5,1.0,1.0
TiO 1,4876.9627,0.14,1.1931964787496045,105.0,3.734728742413407,105.0,99.0,99.0,99.0,7.36,0.0,0.0,0.002,_                             6 wl:PPN2012   6 gf:PPN2012   6 PPN2012   6 PPN2012   6 PPN2012   6 PPN2012   6 PPN2012   6 PPN2012   6 PPN2012    (48)TiO,"8s2.9s1.3p4.1d1 X,3,2,-,104,4","8s2.3p4.4p1.1d1 B,3,1,+,104,7",0.5,1.0,1.0
TiO 1,4876.9945,-0.442,0.6151464302965801,85.0,3.1567306557375425,86.0,99.0,99.0,99.0,7.282,0.0,0.0,0.004,_          0.131428           2 wl:PPN2012   2 gf:PPN2012   2 PPN2012   2 PPN2012   2 PPN2012   2 PPN2012   2 PPN2012   2 PPN2012   2 PPN2012    (47)TiO,"8s2.9s1.3p4.1d1 X,3,2,0,85,1","8s2.11s1.3p4.1d1 C,3,2,0,86,3",0.5,1.0,1.0
TiO 1,4876.9946,-0.447,0.6200284072593244,84.0,3.1615767020798597,85.0,99.0,99.0,99.0,7.282,0.0,0.0,0.004,_          0.0627510          2 wl:PPN2012   2 gf:PPN2012   2 PPN2012   2 PPN2012   2 PPN2012   2 PPN2012   2 PPN2012   2 PPN2012   2 PPN2012    (47)TiO,"8s2.9s1.3p4.1d1 X,3,2,0,85,1","8s2.11s1.3p4.1d1 C,3,2,0,86,3",0.5,1.0,1.0
Th 2,4877.002,-0.83,2.053752108971199,5.5,4.595264126015555,4.5,0.98,1.0,0.94,0.0,0.0,0.0,0.002,_          Hf 1 - U 2 Bell   36 wl:MC  36 gf:MC  36 MC  36 MC  36 MC  36 MC  36 MC  36 MC  36 MC    Th+,5f.(2F<0>).6d2.(3F) 4I*,5f.6d.(3H<0>).7p 5f.6d.(3H<0>).7p,0.5,1.0,2.0
TiO 1,4877.0078,0.26,0.7811950935981503,40.0,3.322703837459693,41.0,99.0,99.0,99.0,7.391,0.0,0.0,0.012,_                             6 wl:PPN2012   6 gf:PPN2012   6 PPN2012   6 PPN2012   6 PPN2012   6 PPN2012   6 PPN2012   6 PPN2012   6 PPN2012    (48)TiO,"8s2.9s1.3p4.1d1 a,1,2,0,40,2","8s2.11s1.3p4.1d1 f,1,2,0,41,4",0.5,1.0,1.0
TiO 1,4877.0196,-0.6779999999999999,0.7271130750759032,57.0,3.2686156073291524,57.0,99.0,99.0,99.0,7.336,0.0,0.0,0.002,_                             6 wl:PPN2012   6 gf:PPN2012   6 PPN2012   6 PPN2012   6 PPN2012   6 PPN2012   6 PPN2012   6 PPN2012   6 PPN2012    (48)TiO,"8s2.9s1.3p4.1d1 X,3,2,+,58,4","8s2.3p4.4p1.1d1 B,3,1,-,58,8",0.5,1.0,1.0
TiO 1,4877.0369,-0.48200000000000004,0.5306015316511818,88.0,3.0721149125217093,87.0,99.0,99.0,99.0,7.282,0.0,0.0,0.006,_          0.0379678          3 wl:PPN2012   3 gf:PPN2012   3 PPN2012   3 PPN2012   3 PPN2012   3 PPN2012   3 PPN2012   3 PPN2012   3 PPN2012    (46)TiO,"8s2.9s1.3p4.1d1 X,3,2,0,88,0","8s2.11s1.3p4.1d1 C,3,2,0,87,2",0.5,1.0,1.0
V 1,4877.0435,-3.8960000000000004,1.7996008700715043,1.5,4.341090941912908,0.5,0.97,0.02,1.21,7.95,-5.96,-7.76,0.004,_          Kurucz V I 2009   19 wl:K09  19 gf:K09  19 K09  19 K09  19 K09  19 K09  19 K09  19 K09  19 K09    V,3d3.4s2 a2D2,3d3.(4F).4s.4p.(3P*) u4D*,0.5,1.0,1.0
TiO 1,4877.0478,-0.684,0.5038984971131519,88.0,3.045370901206416,87.0,99.0,99.0,99.0,7.282,0.0,0.0,0.004,_          -0.0298065         4 wl:PPN2012   4 gf:PPN2012   4 PPN2012   4 PPN2012   4 PPN2012   4 PPN2012   4 PPN2012   4 PPN2012   4 PPN2012    (50)TiO,"8s2.9s1.3p4.1d1 X,3,2,0,87,0","8s2.11s1.3p4.1d1 C,3,2,0,86,2",0.5,1.0,1.0
TiO 1,4877.0485,0.456,1.085362475240356,103.0,3.626162723803875,102.0,99.0,99.0,99.0,7.254,0.0,0.0,0.006,_          -1.31919           6 wl:PPN2012   6 gf:PPN2012   6 PPN2012   6 PPN2012   6 PPN2012   6 PPN2012   6 PPN2012   6 PPN2012   6 PPN2012    (48)TiO,"8s2.9s1.3p4.1d1 X,3,2,0,104,3","8s2.11s1.3p4.1d1 C,3,2,0,103,6",0.5,1.0,1.0
TiO 1,4877.0666,0.14,1.1931964787496045,105.0,3.7346745613191126,105.0,99.0,99.0,99.0,7.36,0.0,0.0,0.002,_                             6 wl:PPN2012   6 gf:PPN2012   6 PPN2012   6 PPN2012   6 PPN2012   6 PPN2012   6 PPN2012   6 PPN2012   6 PPN2012    (48)TiO,"8s2.9s1.3p4.1d1 X,3,2,+,104,4","8s2.3p4.4p1.1d1 B,3,1,-,104,7",0.5,1.0,1.0
TiO 1,4877.0712,-0.599,0.5912076730348257,85.0,3.1326924755478363,86.0,99.0,99.0,99.0,7.282,0.0,0.0,0.004,_          0.0173690          4 wl:PPN2012   4 gf:PPN2012   4 PPN2012   4 PPN2012   4 PPN2012   4 PPN2012   4 PPN2012   4 PPN2012   4 PPN2012    (50)TiO,"8s2.9s1.3p4.1d1 X,3,2,0,84,1","8s2.11s1.3p4.1d1 C,3,2,0,85,3",0.5,1.0,1.0
TiO 1,4877.0739,0.235,1.171359489204944,102.0,3.71283375306117,103.0,99.0,99.0,99.0,7.25,0.0,0.0,0.003,_                             6 wl:PPN2012   6 gf:PPN2012   6 PPN2012   6 PPN2012   6 PPN2012   6 PPN2012   6 PPN2012   6 PPN2012   6 PPN2012    (48)TiO,"8s2.9s1.3p4.1d1 X,3,2,0,102,4","8s2.11s1.3p4.1d1 C,3,2,0,103,7",0.5,1.0,1.0
TiO 1,4877.0742,-1.034,0.35372731213170494,38.0,2.8951758244701167,37.0,99.0,99.0,99.0,7.318,0.0,0.0,0.003,_          -0.0493158         8 wl:PPN2012   8 gf:PPN2012   8 PPN2012   8 PPN2012   8 PPN2012   8 PPN2012   8 PPN2012   8 PPN2012   8 PPN2012    (49)TiO,"8s2.9s1.3p4.1d1 X,3,2,0,38,2","8s2.11s1.3p4.1d1 C,3,2,0,37,4",0.5,1.0,1.0
Fe 2,4877.084,-7.234,2.276429215437917,1.5,4.817898209965751,2.5,1.28,1.65,1.93,8.47,-6.66,-7.91,0.001,_          Kurucz FeII 2013  20 wl:K13  20 gf:K13  20 K13  20 K13  20 K13  20 K13  20 K13  20 K13  20 K13    Fe+,3p6.3d7 a2P,3d6.(5D).4p z6D*,0.5,1.0,2.0
TiO 1,4877.0911,-0.273,1.1297772971048203,89.0,3.6712426340988285,90.0,99.0,99.0,99.0,7.41,0.0,0.0,0.001,_                             6 wl:PPN2012   6 gf:PPN2012   6 PPN2012   6 PPN2012   6 PPN2012   6 PPN2012   6 PPN2012   6 PPN2012   6 PPN2012    (48)TiO,"8s2.9s1.3p4.1d1 X,3,2,-,89,5","8s2.3p4.4p1.1d1 B,3,1,+,90,8",0.5,1.0,1.0
TiO 1,4877.0933,-0.66,0.8003497594210632,43.0,3.341813893768356,44.0,99.0,99.0,99.0,7.388999999999999,0.0,0.0,0.001,_                             3 wl:PPN2012   3 gf:PPN2012   3 PPN2012   3 PPN2012   3 PPN2012   3 PPN2012   3 PPN2012   3 PPN2012   3 PPN2012    (46)TiO,"8s2.9s1.3p4.1d1 a,1,2,0,43,2","8s2.11s1.3p4.1d1 f,1,2,0,44,4",0.5,1.0,1.0
TiO 1,4888.5007,-0.662,0.46966456323342853,73.0,3.005256929972733,72.0,99.0,99.0,99.0,7.296,0.0,0.0,0.005,_          0.113118           4 wl:PPN2012   4 gf:PPN2012   4 PPN2012   4 PPN2012   4 PPN2012   4 PPN2012   4 PPN2012   4 PPN2012   4 PPN2012    (50)TiO,"8s2.9s1.3p4.1d1 X,3,2,0,72,1","8s2.11s1.3p4.1d1 C,3,2,0,71,3",0.5,1.0,1.0
Cr 1,4888.522,-1.36,2.544267813801524,3.0,5.079789286376716,2.0,0.93,1.28,0.58,8.55,-5.71,-7.64,0.857,_          Wallace Cr1 wave  14 wl:WLHK  24 gf:SLS  14 WLHK  14 WLHK  10 K16  10 K16  10 K16  10 K16  10 K16    Cr,3d5.(4G).4s a5G,3d4.(5D).4s.4p.(1P*) y5F*,0.5,1.0,1.0