species,wlcent,gflog,excit,j_lo,e_upp,j_up,lande_lower,lande_upper,lande,gamrad,gamqst,gamvw,depth,reference,term_lower,term_upper,error,atom_number,ionization
TiO 1,4832.042,-0.941,0.21370810202014892,37.0,2.7788893098841196,36.0,99.0,99.0,99.0,7.321000000000001,0.0,0.0,0.006999999999999999,_          0.0415641          4 wl:PPN2012   4 gf:PPN2012   4 PPN2012   4 PPN2012   4 PPN2012   4 PPN2012   4 PPN2012   4 PPN2012   4 PPN2012    (50)TiO,"8s2.9s1.3p4.1d1 X,3,2,0,36,1","8s2.11s1.3p4.1d1 C,3,2,0,35,3",0.5,1.0,1.0
TiO 1,4832.043,0.377,0.3436836498567239,54.0,2.9088912043626567,55.0,99.0,99.0,99.0,7.309,0.0,0.0,0.08,_          0.0924082          6 wl:PPN2012   6 gf:PPN2012   6 PPN2012   6 PPN2012   6 PPN2012   6 PPN2012   6 PPN2012   6 PPN2012   6 PPN2012    (48)TiO,"8s2.9s1.3p4.1d1 X,3,2,0,55,1","8s2.11s1.3p4.1d1 C,3,2,0,56,3",0.5,1.0,1.0
Pr 2,4832.0497,-2.522,0.05478296553834435,5.0,2.619938069397427,5.0,0.88,99.0,99.0,0.0,0.0,0.0,0.26,"_          La1 to Lu 2 Bell   1 wl:MC   1 gf:MC   1 MC   1 MC   1 MC   1 MC   1 MC   1 MC   1 MC   hfs:RIRS,GINo Pr+","4f3.(4I*<9/2>).6s.<1/2> (9/2,1/2)*",4f2.5d2 4f2.5d2,0.5,1.0,2.0
TiO 1,4832.0506,0.508,1.5502391407200806,89.0,4.115393580395817,90.0,99.0,99.0,99.0,7.337000000000001,0.0,0.0,0.001,_                             6 wl:PPN2012   6 gf:PPN2012   6 PPN2012   6 PPN2012   6 PPN2012   6 PPN2012   6 PPN2012   6 PPN2012   6 PPN2012    (48)TiO,"8s2.9s1.3p4.1d1 a,1,2,0,89,5","8s2.11s1.3p4.1d1 f,1,2,0,90,8",0.5,1.0,1.0
TiO 1,4832.0625,0.461,1.085362475240356,103.0,3.6495589138190803,104.0,99.0,99.0,99.0,7.251,0.0,0.0,0.006,_          -1.79349           6 wl:PPN2012   6 gf:PPN2012   6 PPN2012   6 PPN2012   6 PPN2012   6 PPN2012   6 PPN2012   6 PPN2012   6 PPN2012    (48)TiO,"8s2.9s1.3p4.1d1 X,3,2,0,104,3","8s2.11s1.3p4.1d1 C,3,2,0,105,6",0.5,1.0,1.0
Ti 1,4832.0654,-1.217,2.296814573201758,2.0,4.861961201873054,3.0,1.5,1.25,1.0,7.77,-5.24,-7.52,0.752,_          Kurucz TiI 2016   22 wl:K16  22 gf:K16  22 K16  22 K16  22 K16  22 K16  22 K16  22 K16  22 K16    Ti,3d2.(3F).4s.4p.(3P*) z5D*,3d3.(4F).5s f5F,0.5,1.0,1.0
TiO 1,4832.0678,-0.7929999999999999,0.7935025833347384,68.0,3.35864797216406,67.0,99.0,99.0,99.0,7.287999999999999,0.0,0.0,0.001,_                             3 wl:PPN2012   3 gf:PPN2012   3 PPN2012   3 PPN2012   3 PPN2012   3 PPN2012   3 PPN2012   3 PPN2012   3 PPN2012    (46)TiO,"8s2.9s1.3p4.1d1 X,3,2,0,67,4","8s2.11s1.3p4.1d1 C,3,2,0,66,7",0.5,1.0,1.0
Co 1,4832.0698,-2.416,3.9708947871340112,3.5,6.536039045227452,3.5,1.4,0.9,1.15,8.26,-4.77,-7.52,0.083,"_          Kurucz CoI 2008   12 wl:K08  12 gf:K08  12 K08  12 K08  12 K08  12 K08  12 K08  12 K08  12 K08   hfs:P,P Co",3p6.3d8.(3F).4p y4D*,3p6.3d8.(3F).4d e4H,0.5,1.0,1.0
Co 1,4832.0699,-2.62,3.9709067239605904,3.5,6.536050948826266,3.5,1.4,0.9,1.15,8.26,-4.77,-7.52,0.083,"_          Kurucz CoI 2008   12 wl:K08  12 gf:K08  12 K08  12 K08  12 K08  12 K08  12 K08  12 K08  12 K08   hfs:P,P Co",3p6.3d8.(3F).4p y4D*,3p6.3d8.(3F).4d e4H,0.5,1.0,1.0
Co 1,4832.0702,-2.351,3.970884955931057,3.5,6.536029006722919,3.5,1.4,0.9,1.15,8.26,-4.77,-7.52,0.083,"_          Kurucz CoI 2008   12 wl:K08  12 gf:K08  12 K08  12 K08  12 K08  12 K08  12 K08  12 K08  12 K08   hfs:P,P Co",3p6.3d8.(3F).4p y4D*,3p6.3d8.(3F).4d e4H,0.5,1.0,1.0
Co 1,4832.0711,-2.358,3.9708771667478353,3.5,6.5360207573103555,3.5,1.4,0.9,1.15,8.26,-4.77,-7.52,0.083,"_          Kurucz CoI 2008   12 wl:K08  12 gf:K08  12 K08  12 K08  12 K08  12 K08  12 K08  12 K08  12 K08   hfs:P,P Co",3p6.3d8.(3F).4p y4D*,3p6.3d8.(3F).4d e4H,0.5,1.0,1.0
Pr 2,4832.0718,-3.532,0.05483431793317351,5.0,2.619977672553767,5.0,0.88,99.0,99.0,0.0,0.0,0.0,0.26,"_          La1 to Lu 2 Bell   1 wl:MC   1 gf:MC   1 MC   1 MC   1 MC   1 MC   1 MC   1 MC   1 MC   hfs:RIRS,GINo Pr+","4f3.(4I*<9/2>).6s.<1/2> (9/2,1/2)*",4f2.5d2 4f2.5d2,0.5,1.0,2.0
Co 1,4832.0724,-2.424,3.970871369370746,3.5,6.536014233757823,3.5,1.4,0.9,1.15,8.26,-4.77,-7.52,0.083,"_          Kurucz CoI 2008   12 wl:K08  12 gf:K08  12 K08  12 K08  12 K08  12 K08  12 K08  12 K08  12 K08   hfs:P,P Co",3p6.3d8.(3F).4p y4D*,3p6.3d8.(3F).4d e4H,0.5,1.0,1.0
Co 1,4832.0743,-2.562,3.970867525364687,3.5,6.5360093854797645,3.5,1.4,0.9,1.15,8.26,-4.77,-7.52,0.083,"_          Kurucz CoI 2008   12 wl:K08  12 gf:K08  12 K08  12 K08  12 K08  12 K08  12 K08  12 K08  12 K08   hfs:P,P Co",3p6.3d8.(3F).4p y4D*,3p6.3d8.(3F).4d e4H,0.5,1.0,1.0
Co 1,4832.0768,-2.842,3.970865609808836,3.5,6.536006174289049,3.5,1.4,0.9,1.15,8.26,-4.77,-7.52,0.083,"_          Kurucz CoI 2008   12 wl:K08  12 gf:K08  12 K08  12 K08  12 K08  12 K08  12 K08  12 K08  12 K08   hfs:P,P Co",3p6.3d8.(3F).4p y4D*,3p6.3d8.(3F).4d e4H,0.5,1.0,1.0
TiO 1,4832.0779,0.392,0.344516439312711,56.0,2.9097280976955804,57.0,99.0,99.0,99.0,7.308,0.0,0.0,0.083,_          0.134987           6 wl:PPN2012   6 gf:PPN2012   6 PPN2012   6 PPN2012   6 PPN2012   6 PPN2012   6 PPN2012   6 PPN2012   6 PPN2012    (48)TiO,"8s2.9s1.3p4.1d1 X,3,2,0,56,1","8s2.11s1.3p4.1d1 C,3,2,0,57,3",0.5,1.0,1.0
Pr 2,4832.079,-3.2969999999999997,0.05478296553834435,5.0,2.6199225111164233,5.0,0.88,99.0,99.0,0.0,0.0,0.0,0.26,"_          La1 to Lu 2 Bell   1 wl:MC   1 gf:MC   1 MC   1 MC   1 MC   1 MC   1 MC   1 MC   1 MC   hfs:RIRS,GINo Pr+","4f3.(4I*<9/2>).6s.<1/2> (9/2,1/2)*",4f2.5d2 4f2.5d2,0.5,1.0,2.0
Co 1,4832.0804,-3.863,3.970867525364687,3.5,6.536006174289049,3.5,1.4,0.9,1.15,8.26,-4.77,-7.52,0.083,"_          Kurucz CoI 2008   12 wl:K08  12 gf:K08  12 K08  12 K08  12 K08  12 K08  12 K08  12 K08  12 K08   hfs:P,P Co",3p6.3d8.(3F).4p y4D*,3p6.3d8.(3F).4d e4H,0.5,1.0,1.0
Co 1,4832.0816,-3.1639999999999997,3.970871369370746,3.5,6.5360093854797645,3.5,1.4,0.9,1.15,8.26,-4.77,-7.52,0.083,"_          Kurucz CoI 2008   12 wl:K08  12 gf:K08  12 K08  12 K08  12 K08  12 K08  12 K08  12 K08  12 K08   hfs:P,P Co",3p6.3d8.(3F).4p y4D*,3p6.3d8.(3F).4d e4H,0.5,1.0,1.0
Co 1,4832.0834,-2.717,3.9708771667478353,3.5,6.536014233757823,3.5,1.4,0.9,1.15,8.26,-4.77,-7.52,0.083,"_          Kurucz CoI 2008   12 wl:K08  12 gf:K08  12 K08  12 K08  12 K08  12 K08  12 K08  12 K08  12 K08   hfs:P,P Co",3p6.3d8.(3F).4p y4D*,3p6.3d8.(3F).4d e4H,0.5,1.0,1.0
Co 1,4832.0834,-2.842,3.970867525364687,3.5,6.536004575016887,3.5,1.4,0.9,1.15,8.26,-4.77,-7.52,0.083,"_          Kurucz CoI 2008   12 wl:K08  12 gf:K08  12 K08  12 K08  12 K08  12 K08  12 K08  12 K08  12 K08   hfs:P,P Co",3p6.3d8.(3F).4p y4D*,3p6.3d8.(3F).4d e4H,0.5,1.0,1.0
Co 1,4832.0857,-2.386,3.970884955931057,3.5,6.5360207573103555,3.5,1.4,0.9,1.15,8.26,-4.77,-7.52,0.083,"_          Kurucz CoI 2008   12 wl:K08  12 gf:K08  12 K08  12 K08  12 K08  12 K08  12 K08  12 K08  12 K08   hfs:P,P Co",3p6.3d8.(3F).4p y4D*,3p6.3d8.(3F).4d e4H,0.5,1.0,1.0
TiO 1,4832.0871,-0.852,0.7196071585499998,72.0,3.284742231894092,72.0,99.0,99.0,99.0,7.301,0.0,0.0,0.001,_                             6 wl:PPN2012   6 gf:PPN2012   6 PPN2012   6 PPN2012   6 PPN2012   6 PPN2012   6 PPN2012   6 PPN2012   6 PPN2012    (48)TiO,"8s2.9s1.3p4.1d1 X,3,2,+,72,3","8s2.3p4.4p1.1d1 B,3,1,-,72,7",0.5,1.0,1.0
Co 1,4832.0876,-2.562,3.970871369370746,3.5,6.536006174289049,3.5,1.4,0.9,1.15,8.26,-4.77,-7.52,0.083,"_          Kurucz CoI 2008   12 wl:K08  12 gf:K08  12 K08  12 K08  12 K08  12 K08  12 K08  12 K08  12 K08   hfs:P,P Co",3p6.3d8.(3F).4p y4D*,3p6.3d8.(3F).4d e4H,0.5,1.0,1.0
TiO 1,4832.0887,-0.654,0.3185556981649347,66.0,2.883730099296464,65.0,99.0,99.0,99.0,7.303,0.0,0.0,0.009000000000000001,_          0.0754960          2 wl:PPN2012   2 gf:PPN2012   2 PPN2012   2 PPN2012   2 PPN2012   2 PPN2012   2 PPN2012   2 PPN2012   2 PPN2012    (47)TiO,"8s2.9s1.3p4.1d1 X,3,2,0,67,0","8s2.11s1.3p4.1d1 C,3,2,0,66,2",0.5,1.0,1.0
Co 1,4832.0887,-2.123,3.9708947871340112,3.5,6.536029006722919,3.5,1.4,0.9,1.15,8.26,-4.77,-7.52,0.083,"_          Kurucz CoI 2008   12 wl:K08  12 gf:K08  12 K08  12 K08  12 K08  12 K08  12 K08  12 K08  12 K08   hfs:P,P Co",3p6.3d8.(3F).4p y4D*,3p6.3d8.(3F).4d e4H,0.5,1.0,1.0
Co 1,4832.0923,-1.9040000000000001,3.9709067239605904,3.5,6.536039045227452,3.5,1.4,0.9,1.15,8.26,-4.77,-7.52,0.083,"_          Kurucz CoI 2008   12 wl:K08  12 gf:K08  12 K08  12 K08  12 K08  12 K08  12 K08  12 K08  12 K08   hfs:P,P Co",3p6.3d8.(3F).4p y4D*,3p6.3d8.(3F).4d e4H,0.5,1.0,1.0
Co 1,4832.0925,-2.424,3.9708771667478353,3.5,6.5360093854797645,3.5,1.4,0.9,1.15,8.26,-4.77,-7.52,0.083,"_          Kurucz CoI 2008   12 wl:K08  12 gf:K08  12 K08  12 K08  12 K08  12 K08  12 K08  12 K08  12 K08   hfs:P,P Co",3p6.3d8.(3F).4p y4D*,3p6.3d8.(3F).4d e4H,0.5,1.0,1.0
TiO 1,4832.0935,0.212,0.9475280278676801,83.0,3.5126597784352795,84.0,99.0,99.0,99.0,7.272,0.0,0.0,0.006,_                             6 wl:PPN2012   6 gf:PPN2012   6 PPN2012   6 PPN2012   6 PPN2012   6 PPN2012   6 PPN2012   6 PPN2012   6 PPN2012    (48)TiO,"8s2.9s1.3p4.1d1 X,3,2,0,83,4","8s2.11s1.3p4.1d1 C,3,2,0,84,7",0.5,1.0,1.0
TiO 1,4832.0938,-0.675,0.47281703503198297,85.0,3.0379316013898134,86.0,99.0,99.0,99.0,7.2829999999999995,0.0,0.0,0.005,_          -0.0321134         8 wl:PPN2012   8 gf:PPN2012   8 PPN2012   8 PPN2012   8 PPN2012   8 PPN2012   8 PPN2012   8 PPN2012   8 PPN2012    (49)TiO,"8s2.9s1.3p4.1d1 X,3,2,0,84,0","8s2.11s1.3p4.1d1 C,3,2,0,85,2",0.5,1.0,1.0
Co 1,4832.0965,-1.7169999999999999,3.9709208422891256,3.5,6.536050948826266,3.5,1.4,0.9,1.15,8.26,-4.77,-7.52,0.083,"_          Kurucz CoI 2008   12 wl:K08  12 gf:K08  12 K08  12 K08  12 K08  12 K08  12 K08  12 K08  12 K08   hfs:P,P Co",3p6.3d8.(3F).4p y4D*,3p6.3d8.(3F).4d e4H,0.5,1.0,1.0
Co 1,4832.098,-2.358,3.970884955931057,3.5,6.536014233757823,3.5,1.4,0.9,1.15,8.26,-4.77,-7.52,0.083,"_          Kurucz CoI 2008   12 wl:K08  12 gf:K08  12 K08  12 K08  12 K08  12 K08  12 K08  12 K08  12 K08   hfs:P,P Co",3p6.3d8.(3F).4p y4D*,3p6.3d8.(3F).4d e4H,0.5,1.0,1.0
TiO 1,4832.0995,-0.44799999999999995,0.9624468479745446,43.0,3.5275754493435283,43.0,99.0,99.0,99.0,7.4910000000000005,0.0,0.0,0.001,_                             6 wl:PPN2012   6 gf:PPN2012   6 PPN2012   6 PPN2012   6 PPN2012   6 PPN2012   6 PPN2012   6 PPN2012   6 PPN2012    (48)TiO,"8s2.9s1.3p4.1d1 X,3,2,+,42,7","8s2.3p4.4p1.1d1 B,3,1,-,42,11",0.5,1.0,1.0
Co 1,4832.1043,-2.351,3.9708947871340112,3.5,6.5360207573103555,3.5,1.4,0.9,1.15,8.26,-4.77,-7.52,0.083,"_          Kurucz CoI 2008   12 wl:K08  12 gf:K08  12 K08  12 K08  12 K08  12 K08  12 K08  12 K08  12 K08   hfs:P,P Co",3p6.3d8.(3F).4p y4D*,3p6.3d8.(3F).4d e4H,0.5,1.0,1.0
Sr 1,4832.108,-0.11,1.7983103185600378,1.0,4.363434134138999,0.0,99.0,99.0,99.0,0.0,0.0,0.0,0.613,_          Cu 1 - Ba 2 Bell  17 wl:CB  17 gf:CB  17 CB  17 CB  17 CB  17 CB  17 CB  17 CB  17 CB    Sr,5s.(2S).5p 3P*,5p2 3P,0.5,1.0,1.0
Co 1,4832.1112,-2.416,3.9709067239605904,3.5,6.536029006722919,3.5,1.4,0.9,1.15,8.26,-4.77,-7.52,0.083,"_          Kurucz CoI 2008   12 wl:K08  12 gf:K08  12 K08  12 K08  12 K08  12 K08  12 K08  12 K08  12 K08   hfs:P,P Co",3p6.3d8.(3F).4p y4D*,3p6.3d8.(3F).4d e4H,0.5,1.0,1.0
Pr 2,4832.1118,-2.411,0.05483431793317351,5.0,2.619956456625864,5.0,0.88,99.0,99.0,0.0,0.0,0.0,0.26,"_          La1 to Lu 2 Bell   1 wl:MC   1 gf:MC   1 MC   1 MC   1 MC   1 MC   1 MC   1 MC   1 MC   hfs:RIRS,GINo Pr+","4f3.(4I*<9/2>).6s.<1/2> (9/2,1/2)*",4f2.5d2 4f2.5d2,0.5,1.0,2.0
Ta 1,4832.1167,-2.867,1.2368440787131034,1.5,3.801963373580257,1.5,1.54,1.81,1.68,0.0,0.0,0.0,0.003,"_          Hf 1 - U 2 Bell   36 wl:SDL  36 gf:SDL  36 SDL  36 SDL  36 SDL  36 SDL  36 SDL  36 SDL  36 SDL   hfs:BGP,WIAU Ta",5d4.(a5D).6s a6D,5d3.6s.(a5P).6p y6D*,0.5,1.0,1.0
Co 1,4832.1189,-2.62,3.9709208422891256,3.5,6.536039045227452,3.5,1.4,0.9,1.15,8.26,-4.77,-7.52,0.083,"_          Kurucz CoI 2008   12 wl:K08  12 gf:K08  12 K08  12 K08  12 K08  12 K08  12 K08  12 K08  12 K08   hfs:P,P Co",3p6.3d8.(3F).4p y4D*,3p6.3d8.(3F).4d e4H,0.5,1.0,1.0
TiO 1,4832.1255,-0.912,0.7381403659815134,68.0,3.303255056323541,69.0,99.0,99.0,99.0,7.392,0.0,0.0,0.001,_                             2 wl:PPN2012   2 gf:PPN2012   2 PPN2012   2 PPN2012   2 PPN2012   2 PPN2012   2 PPN2012   2 PPN2012   2 PPN2012    (47)TiO,"8s2.9s1.3p4.1d1 a,1,2,0,68,0","8s2.11s1.3p4.1d1 f,1,2,0,69,2",0.5,1.0,1.0
Ta 1,4832.128,-2.753,1.236823979262899,1.5,3.801937258788744,1.5,1.54,1.81,1.68,0.0,0.0,0.0,0.003,"_          Hf 1 - U 2 Bell   36 wl:SDL  36 gf:SDL  36 SDL  36 SDL  36 SDL  36 SDL  36 SDL  36 SDL  36 SDL   hfs:BGP,WIAU Ta",5d4.(a5D).6s a6D,5d3.6s.(a5P).6p y6D*,0.5,1.0,1.0
Ti 1,4832.1394,-3.161,2.7377184973512017,2.0,5.3028258230319,2.0,1.0,1.18,1.09,7.7,-5.24,-7.53,0.01,_          Kurucz TiI 2016   22 wl:K16  22 gf:K16  22 K16  22 K16  22 K16  22 K16  22 K16  22 K16  22 K16    Ti,3d2.(3F).4s.4p.(3P*) z1D*,3d2.4s.(4F).4d 3D,0.5,1.0,1.0
TiO 1,4832.1405,-0.9490000000000001,0.22986822711524482,35.0,2.795017794212021,34.0,99.0,99.0,99.0,7.321000000000001,0.0,0.0,0.006,_          0.0806442          8 wl:PPN2012   8 gf:PPN2012   8 PPN2012   8 PPN2012   8 PPN2012   8 PPN2012   8 PPN2012   8 PPN2012   8 PPN2012    (49)TiO,"8s2.9s1.3p4.1d1 X,3,2,0,36,1","8s2.11s1.3p4.1d1 C,3,2,0,35,3",0.5,1.0,1.0
Pr 2,4832.1464,-3.339,0.05483431793317351,5.0,2.619938069397427,5.0,0.88,99.0,99.0,0.0,0.0,0.0,0.26,"_          La1 to Lu 2 Bell   1 wl:MC   1 gf:MC   1 MC   1 MC   1 MC   1 MC   1 MC   1 MC   1 MC   hfs:RIRS,GINo Pr+","4f3.(4I*<9/2>).6s.<1/2> (9/2,1/2)*",4f2.5d2 4f2.5d2,0.5,1.0,2.0
Ta 1,4832.1476,-2.878,1.2368088761278841,1.5,3.801911751643783,1.5,1.54,1.81,1.68,0.0,0.0,0.0,0.003,"_          Hf 1 - U 2 Bell   36 wl:SDL  36 gf:SDL  36 SDL  36 SDL  36 SDL  36 SDL  36 SDL  36 SDL  36 SDL   hfs:BGP,WIAU Ta",5d4.(a5D).6s a6D,5d3.6s.(a5P).6p y6D*,0.5,1.0,1.0
TiO 1,4832.1546,-0.9420000000000001,0.22603091620354437,37.0,2.7911762678376064,36.0,99.0,99.0,99.0,7.321000000000001,0.0,0.0,0.006,_          0.0866922          4 wl:PPN2012   4 gf:PPN2012   4 PPN2012   4 PPN2012   4 PPN2012   4 PPN2012   4 PPN2012   4 PPN2012   4 PPN2012    (50)TiO,"8s2.9s1.3p4.1d1 X,3,2,0,37,1","8s2.11s1.3p4.1d1 C,3,2,0,36,3",0.5,1.0,1.0
TiO 1,4832.1613,0.349,0.31124744964505807,67.0,2.876376968497103,66.0,99.0,99.0,99.0,7.303,0.0,0.0,0.085,_          0.0635790          6 wl:PPN2012   6 gf:PPN2012   6 PPN2012   6 PPN2012   6 PPN2012   6 PPN2012   6 PPN2012   6 PPN2012   6 PPN2012    (48)TiO,"8s2.9s1.3p4.1d1 X,3,2,0,67,0","8s2.11s1.3p4.1d1 C,3,2,0,66,2",0.5,1.0,1.0
TiO 1,4832.1616,0.555,1.6062142863519189,146.0,4.1791525779290275,145.0,99.0,99.0,99.0,7.182,0.0,0.0,0.001,_          14.7295            6 wl:PPN2012   6 gf:PPN2012   6 PPN2012   6 PPN2012   6 PPN2012   6 PPN2012   6 PPN2012   6 PPN2012   6 PPN2012    (48)TiO,"8s2.9s1.3p4.1d1 X,3,2,0,145,2","8s2.11s1.3p4.1d1 C,3,2,0,144,6",0.5,1.0,1.0
Ta 1,4832.1639,-2.456,1.2368691417466695,1.5,3.801963373580257,1.5,1.54,1.81,1.68,0.0,0.0,0.0,0.003,"_          Hf 1 - U 2 Bell   36 wl:SDL  36 gf:SDL  36 SDL  36 SDL  36 SDL  36 SDL  36 SDL  36 SDL  36 SDL   hfs:BGP,WIAU Ta",5d4.(a5D).6s a6D,5d3.6s.(a5P).6p y6D*,0.5,1.0,1.0
Ta 1,4832.1659,-3.072,1.2368440787131034,1.5,3.801937258788744,1.5,1.54,1.81,1.68,0.0,0.0,0.0,0.003,"_          Hf 1 - U 2 Bell   36 wl:SDL  36 gf:SDL  36 SDL  36 SDL  36 SDL  36 SDL  36 SDL  36 SDL  36 SDL   hfs:BGP,WIAU Ta",5d4.(a5D).6s a6D,5d3.6s.(a5P).6p y6D*,0.5,1.0,1.0
TiO 1,4832.1695,-0.595,0.3089554033801068,68.0,2.874043709884913,67.0,99.0,99.0,99.0,7.3020000000000005,0.0,0.0,0.01,_          -0.00582391        3 wl:PPN2012   3 gf:PPN2012   3 PPN2012   3 PPN2012   3 PPN2012   3 PPN2012   3 PPN2012   3 PPN2012   3 PPN2012    (46)TiO,"8s2.9s1.3p4.1d1 X,3,2,0,67,0","8s2.11s1.3p4.1d1 C,3,2,0,66,2",0.5,1.0,1.0
Ta 1,4832.1761,-21.85,1.236823979262899,1.5,3.801911751643783,1.5,1.54,1.81,1.68,0.0,0.0,0.0,0.003,"_          Hf 1 - U 2 Bell   36 wl:SDL  36 gf:SDL  36 SDL  36 SDL  36 SDL  36 SDL  36 SDL  36 SDL  36 SDL   hfs:BGP,WIAU Ta",5d4.(a5D).6s a6D,5d3.6s.(a5P).6p y6D*,0.5,1.0,1.0
TiO 1,4832.1828,-0.768,0.3345785727534311,55.0,2.8997334835691184,56.0,99.0,99.0,99.0,7.309,0.0,0.0,0.006,_          0.132916           4 wl:PPN2012   4 gf:PPN2012   4 PPN2012   4 PPN2012   4 PPN2012   4 PPN2012   4 PPN2012   4 PPN2012   4 PPN2012    (50)TiO,"8s2.9s1.3p4.1d1 X,3,2,0,55,1","8s2.11s1.3p4.1d1 C,3,2,0,56,3",0.5,1.0,1.0
Pr 2,4832.1834,-2.301,0.05489357060106547,5.0,2.619977672553767,5.0,0.88,99.0,99.0,0.0,0.0,0.0,0.26,"_          La1 to Lu 2 Bell   1 wl:MC   1 gf:MC   1 MC   1 MC   1 MC   1 MC   1 MC   1 MC   1 MC   hfs:RIRS,GINo Pr+","4f3.(4I*<9/2>).6s.<1/2> (9/2,1/2)*",4f2.5d2 4f2.5d2,0.5,1.0,2.0
Ta 1,4832.1887,-3.054,1.2368088761278841,1.5,3.801889929061202,1.5,1.54,1.81,1.68,0.0,0.0,0.0,0.003,"_          Hf 1 - U 2 Bell   36 wl:SDL  36 gf:SDL  36 SDL  36 SDL  36 SDL  36 SDL  36 SDL  36 SDL  36 SDL   hfs:BGP,WIAU Ta",5d4.(a5D).6s a6D,5d3.6s.(a5P).6p y6D*,0.5,1.0,1.0
Fe 1,4832.1943,-2.276,4.795465625133283,2.0,7.360543814527576,2.0,1.15,1.15,1.15,8.3,-3.98,-7.25,0.12,_          Kurucz Fe I 2014   5 wl:K14   5 gf:K14   5 K14   5 K14   5 K14   5 K14   5 K14   5 K14   5 K14    Fe,3d7.(4F).4p y3D*,3d7.(4F).5d 5F,0.5,1.0,1.0
TiO 1,4832.2076,-0.221,0.8166548840351004,53.0,3.381726018728557,54.0,99.0,99.0,99.0,7.292999999999999,0.0,0.0,0.003,_                             6 wl:PPN2012   6 gf:PPN2012   6 PPN2012   6 PPN2012   6 PPN2012   6 PPN2012   6 PPN2012   6 PPN2012   6 PPN2012    (48)TiO,"8s2.9s1.3p4.1d1 X,3,2,0,54,5","8s2.11s1.3p4.1d1 C,3,2,0,55,8",0.5,1.0,1.0
CH 1,4832.208,-2.595,1.1073047273686685,9.5,3.6723758496637053,9.5,99.0,99.0,99.0,6.27,0.0,0.0,0.003,_                            37 wl:JLIY  37 gf:JLIY  37 JLIY  37 JLIY  37 JLIY  37 JLIY  37 JLIY  37 JLIY  37 JLIY    (12)CH,"1s2.2s2.3s2.1p1 X,2,1,f,9,3","1s2.2s2.3s1.1p2 A,2,2,e,9,2",0.5,1.0,1.0
Ta 1,4832.2131,-2.867,1.2368691417466695,1.5,3.801937258788744,1.5,1.54,1.81,1.68,0.0,0.0,0.0,0.003,"_          Hf 1 - U 2 Bell   36 wl:SDL  36 gf:SDL  36 SDL  36 SDL  36 SDL  36 SDL  36 SDL  36 SDL  36 SDL   hfs:BGP,WIAU Ta",5d4.(a5D).6s a6D,5d3.6s.(a5P).6p y6D*,0.5,1.0,1.0
Ta 1,4832.2139,-2.753,1.2368440787131034,1.5,3.801911751643783,1.5,1.54,1.81,1.68,0.0,0.0,0.0,0.003,"_          Hf 1 - U 2 Bell   36 wl:SDL  36 gf:SDL  36 SDL  36 SDL  36 SDL  36 SDL  36 SDL  36 SDL  36 SDL   hfs:BGP,WIAU Ta",5d4.(a5D).6s a6D,5d3.6s.(a5P).6p y6D*,0.5,1.0,1.0
TiO 1,4832.2159,-0.596,0.33980409752894536,57.0,2.9049150311497898,58.0,99.0,99.0,99.0,7.308,0.0,0.0,0.009000000000000001,_          0.0831816          2 wl:PPN2012   2 gf:PPN2012   2 PPN2012   2 PPN2012   2 PPN2012   2 PPN2012   2 PPN2012   2 PPN2012   2 PPN2012    (47)TiO,"8s2.9s1.3p4.1d1 X,3,2,0,56,1","8s2.11s1.3p4.1d1 C,3,2,0,57,3",0.5,1.0,1.0
TiO 1,4832.2168,0.55,1.0866717607640601,122.0,3.6472497081411994,121.0,99.0,99.0,99.0,7.231,0.0,0.0,0.006999999999999999,_          -8.47037           6 wl:PPN2012   6 gf:PPN2012   6 PPN2012   6 PPN2012   6 PPN2012   6 PPN2012   6 PPN2012   6 PPN2012   6 PPN2012    (48)TiO,"8s2.9s1.3p4.1d1 X,3,2,0,121,1","8s2.11s1.3p4.1d1 C,3,2,0,120,4",0.5,1.0,1.0
Ta 1,4832.2172,-2.878,1.236823979262899,1.5,3.801889929061202,1.5,1.54,1.81,1.68,0.0,0.0,0.0,0.003,"_          Hf 1 - U 2 Bell   36 wl:SDL  36 gf:SDL  36 SDL  36 SDL  36 SDL  36 SDL  36 SDL  36 SDL  36 SDL   hfs:BGP,WIAU Ta",5d4.(a5D).6s a6D,5d3.6s.(a5P).6p y6D*,0.5,1.0,1.0
Pr 2,4832.2234,-3.532,0.05489357060106547,5.0,2.619956456625864,5.0,0.88,99.0,99.0,0.0,0.0,0.0,0.26,"_          La1 to Lu 2 Bell   1 wl:MC   1 gf:MC   1 MC   1 MC   1 MC   1 MC   1 MC   1 MC   1 MC   hfs:RIRS,GINo Pr+","4f3.(4I*<9/2>).6s.<1/2> (9/2,1/2)*",4f2.5d2 4f2.5d2,0.5,1.0,2.0
TiO 1,4832.2421,0.419,0.896001484834749,89.0,3.4591237739202714,88.0,99.0,99.0,99.0,7.271,0.0,0.0,0.011000000000000001,_          -3.63969           6 wl:PPN2012   6 gf:PPN2012   6 PPN2012   6 PPN2012   6 PPN2012   6 PPN2012   6 PPN2012   6 PPN2012   6 PPN2012    (48)TiO,"8s2.9s1.3p4.1d1 X,3,2,0,89,3","8s2.11s1.3p4.1d1 C,3,2,0,88,6",0.5,1.0,1.0