species,wlcent,gflog,excit,j_lo,e_upp,j_up,lande_lower,lande_upper,lande,gamrad,gamqst,gamvw,depth,reference,term_lower,term_upper,error,atom_number,ionization
TiO 1,4803.5258,-0.9009999999999999,0.4299653687339626,7.0,3.0103523085361634,8.0,99.0,99.0,99.0,7.414,0.0,0.0,0.003,_                             6 wl:PPN2012   6 gf:PPN2012   6 PPN2012   6 PPN2012   6 PPN2012   6 PPN2012   6 PPN2012   6 PPN2012   6 PPN2012    (48)TiO,"8s2.9s1.3p4.1d1 a,1,2,0,7,0","8s2.11s1.3p4.1d1 f,1,2,0,8,2",0.5,1.0,1.0
TiO 1,4803.5297,-0.941,0.1582761311574272,49.0,2.738674043561104,48.0,99.0,99.0,99.0,7.316,0.0,0.0,0.008,_          0.0243152          4 wl:PPN2012   4 gf:PPN2012   4 PPN2012   4 PPN2012   4 PPN2012   4 PPN2012   4 PPN2012   4 PPN2012   4 PPN2012    (50)TiO,"8s2.9s1.3p4.1d1 X,3,2,0,48,0","8s2.11s1.3p4.1d1 C,3,2,0,47,2",0.5,1.0,1.0
Gd 2,4803.53,-1.18,1.4248516901029862,5.5,4.005236224611756,4.5,1.78,1.75,1.85,0.0,0.0,0.0,0.03,E 0.06     Wisconsin REE ex  11 wl:DLSC  11 gf:DLSC  11 DLSC  11 DLSC  11 DLSC  11 DLSC  11 DLSC  11 DLSC  11 DLSC    Gd+,4f7.(8S).5d2.(3P) 10P*,4f7.(8S).5d.(9D).6p 4f7.(8S).5d.(9D).6p,1.1481536214968828,1.0,2.0
TiO 1,4803.5309,-1.321,0.14274959010824317,10.0,2.7231698196674645,11.0,99.0,99.0,99.0,7.329,0.0,0.0,0.004,_          0.0671442          2 wl:PPN2012   2 gf:PPN2012   2 PPN2012   2 PPN2012   2 PPN2012   2 PPN2012   2 PPN2012   2 PPN2012   2 PPN2012    (47)TiO,"8s2.9s1.3p4.1d1 X,3,2,0,10,1","8s2.11s1.3p4.1d1 C,3,2,0,11,3",0.5,1.0,1.0
TiO 1,4803.5372,0.166,1.3230145418585528,76.0,3.903395356841399,76.0,99.0,99.0,99.0,7.587000000000001,0.0,0.0,0.001,_                             6 wl:PPN2012   6 gf:PPN2012   6 PPN2012   6 PPN2012   6 PPN2012   6 PPN2012   6 PPN2012   6 PPN2012   6 PPN2012    (48)TiO,"8s2.9s1.3p4.1d1 X,3,2,-,75,8","8s2.3p4.4p1.1d1 B,3,1,+,75,11",0.5,1.0,1.0
TiO 1,4803.541,-1.472,0.1391760803734999,7.0,2.7195939914282286,8.0,99.0,99.0,99.0,7.331,0.0,0.0,0.003,_          0.0727918          2 wl:PPN2012   2 gf:PPN2012   2 PPN2012   2 PPN2012   2 PPN2012   2 PPN2012   2 PPN2012   2 PPN2012   2 PPN2012    (47)TiO,"8s2.9s1.3p4.1d1 X,3,2,0,7,1","8s2.11s1.3p4.1d1 C,3,2,0,8,3",0.5,1.0,1.0
Ce 2,4803.5466,-3.03,0.9326862515411236,5.5,3.5130619831718732,4.5,1.25,0.89,2.05,0.0,0.0,0.0,0.004,C 0.005    Ce 2: DREAM data  15 wl:PQWB  15 gf:PQWB  15 PQWB  15 PQWB  15 PQWB  15 PQWB  15 PQWB  15 PQWB  15 PQWB    Ce+,4f.(2F*).5d2.(3F) 4G*,4f.5d.(3H*).6p 4f.5d.(3H*).6p,0.005,1.0,2.0
TiO 1,4803.5476,-0.525,0.4465760400042453,17.0,3.0269513128934635,18.0,99.0,99.0,99.0,7.4110000000000005,0.0,0.0,0.006999999999999999,_                             6 wl:PPN2012   6 gf:PPN2012   6 PPN2012   6 PPN2012   6 PPN2012   6 PPN2012   6 PPN2012   6 PPN2012   6 PPN2012    (48)TiO,"8s2.9s1.3p4.1d1 a,1,2,0,17,0","8s2.11s1.3p4.1d1 f,1,2,0,18,2",0.5,1.0,1.0
TiO 1,4803.5555,0.113,1.2118133755144105,86.0,3.792184383347236,85.0,99.0,99.0,99.0,7.257999999999999,0.0,0.0,0.002,_                             6 wl:PPN2012   6 gf:PPN2012   6 PPN2012   6 PPN2012   6 PPN2012   6 PPN2012   6 PPN2012   6 PPN2012   6 PPN2012    (48)TiO,"8s2.9s1.3p4.1d1 X,3,2,0,86,6","8s2.11s1.3p4.1d1 C,3,2,0,85,10",0.5,1.0,1.0
TiO 1,4803.5558,-0.722,0.17486918427324927,51.0,2.7552506067786626,50.0,99.0,99.0,99.0,7.314,0.0,0.0,0.013000000000000001,_          0.0196486          3 wl:PPN2012   3 gf:PPN2012   3 PPN2012   3 PPN2012   3 PPN2012   3 PPN2012   3 PPN2012   3 PPN2012   3 PPN2012    (46)TiO,"8s2.9s1.3p4.1d1 X,3,2,0,50,0","8s2.11s1.3p4.1d1 C,3,2,0,49,2",0.5,1.0,1.0
TiO 1,4803.5661,-1.876,0.12491524440260943,2.0,2.7053937093393827,3.0,99.0,99.0,99.0,7.343,0.0,0.0,0.001,_          0.210565           3 wl:PPN2012   3 gf:PPN2012   3 PPN2012   3 PPN2012   3 PPN2012   3 PPN2012   3 PPN2012   3 PPN2012   3 PPN2012    (46)TiO,"8s2.9s1.3p4.1d1 X,3,2,0,1,1","8s2.11s1.3p4.1d1 C,3,2,0,2,3",0.5,1.0,1.0
TiO 1,4803.5684,0.221,0.1663699187556351,50.0,2.7467457867690017,49.0,99.0,99.0,99.0,7.315,0.0,0.0,0.109,_          0.0219214          6 wl:PPN2012   6 gf:PPN2012   6 PPN2012   6 PPN2012   6 PPN2012   6 PPN2012   6 PPN2012   6 PPN2012   6 PPN2012    (48)TiO,"8s2.9s1.3p4.1d1 X,3,2,0,49,0","8s2.11s1.3p4.1d1 C,3,2,0,48,2",0.5,1.0,1.0
TiO 1,4803.5771,-1.281,0.14420532576599918,11.0,2.7245999773852825,12.0,99.0,99.0,99.0,7.329,0.0,0.0,0.004,_          0.0657431          2 wl:PPN2012   2 gf:PPN2012   2 PPN2012   2 PPN2012   2 PPN2012   2 PPN2012   2 PPN2012   2 PPN2012   2 PPN2012    (47)TiO,"8s2.9s1.3p4.1d1 X,3,2,0,11,1","8s2.11s1.3p4.1d1 C,3,2,0,12,3",0.5,1.0,1.0
TiO 1,4803.5853,0.212,1.289164996186246,84.0,3.8695198984718204,84.0,99.0,99.0,99.0,7.575,0.0,0.0,0.002,_                             6 wl:PPN2012   6 gf:PPN2012   6 PPN2012   6 PPN2012   6 PPN2012   6 PPN2012   6 PPN2012   6 PPN2012   6 PPN2012    (48)TiO,"8s2.9s1.3p4.1d1 X,3,2,+,83,7","8s2.3p4.4p1.1d1 B,3,1,-,83,10",0.5,1.0,1.0
TiO 1,4803.5904,-0.787,0.807900297859636,68.0,3.3882525468833844,69.0,99.0,99.0,99.0,7.2860000000000005,0.0,0.0,0.001,_                             3 wl:PPN2012   3 gf:PPN2012   3 PPN2012   3 PPN2012   3 PPN2012   3 PPN2012   3 PPN2012   3 PPN2012   3 PPN2012    (46)TiO,"8s2.9s1.3p4.1d1 X,3,2,0,68,4","8s2.11s1.3p4.1d1 C,3,2,0,69,7",0.5,1.0,1.0
TiO 1,4803.5926,0.536,1.4994574451518707,140.0,4.08673252541924,139.0,99.0,99.0,99.0,7.194,0.0,0.0,0.002,_          12.8557            6 wl:PPN2012   6 gf:PPN2012   6 PPN2012   6 PPN2012   6 PPN2012   6 PPN2012   6 PPN2012   6 PPN2012   6 PPN2012    (48)TiO,"8s2.9s1.3p4.1d1 X,3,2,0,139,2","8s2.11s1.3p4.1d1 C,3,2,0,138,6",0.5,1.0,1.0
TiO 1,4803.5938,-1.5390000000000001,0.1382495340673859,6.0,2.718640304981288,7.0,99.0,99.0,99.0,7.331,0.0,0.0,0.002,_          0.0751787          2 wl:PPN2012   2 gf:PPN2012   2 PPN2012   2 PPN2012   2 PPN2012   2 PPN2012   2 PPN2012   2 PPN2012   2 PPN2012    (47)TiO,"8s2.9s1.3p4.1d1 X,3,2,0,6,1","8s2.11s1.3p4.1d1 C,3,2,0,7,3",0.5,1.0,1.0
TiO 1,4803.6096,-0.741,0.188087263549737,49.0,2.768474141359839,48.0,99.0,99.0,99.0,7.315,0.0,0.0,0.011000000000000001,_          0.0838495          3 wl:PPN2012   3 gf:PPN2012   3 PPN2012   3 PPN2012   3 PPN2012   3 PPN2012   3 PPN2012   3 PPN2012   3 PPN2012    (46)TiO,"8s2.9s1.3p4.1d1 X,3,2,0,50,0","8s2.11s1.3p4.1d1 C,3,2,0,49,2",0.5,1.0,1.0
TiO 1,4803.6101,0.055999999999999994,0.6781224800211865,50.0,3.258464153192891,49.0,99.0,99.0,99.0,7.3,0.0,0.0,0.011000000000000001,_                             6 wl:PPN2012   6 gf:PPN2012   6 PPN2012   6 PPN2012   6 PPN2012   6 PPN2012   6 PPN2012   6 PPN2012   6 PPN2012    (48)TiO,"8s2.9s1.3p4.1d1 X,3,2,0,51,4","8s2.11s1.3p4.1d1 C,3,2,0,50,7",0.5,1.0,1.0
TiO 1,4803.6116,0.40399999999999997,1.3477285599086684,69.0,3.9280694519799284,70.0,99.0,99.0,99.0,7.351,0.0,0.0,0.002,_                             6 wl:PPN2012   6 gf:PPN2012   6 PPN2012   6 PPN2012   6 PPN2012   6 PPN2012   6 PPN2012   6 PPN2012   6 PPN2012    (48)TiO,"8s2.9s1.3p4.1d1 a,1,2,0,69,5","8s2.11s1.3p4.1d1 f,1,2,0,70,8",0.5,1.0,1.0
TiO 1,4803.6131,-0.7829999999999999,0.7523521042102058,76.0,3.3317499724755084,75.0,99.0,99.0,99.0,7.285,0.0,0.0,0.001,_          -1.75455           4 wl:PPN2012   4 gf:PPN2012   4 PPN2012   4 PPN2012   4 PPN2012   4 PPN2012   4 PPN2012   4 PPN2012   4 PPN2012    (50)TiO,"8s2.9s1.3p4.1d1 X,3,2,0,76,3","8s2.11s1.3p4.1d1 C,3,2,0,75,6",0.5,1.0,1.0
MgH 1,4803.6145,-1.953,0.004269271855686361,2.5,2.5846085521323796,2.5,99.0,99.0,99.0,7.39,0.0,0.0,0.035,_                            18 wl:KMGH  18 gf:KMGH  18 KMGH  18 KMGH  18 KMGH  18 KMGH  18 KMGH  18 KMGH  18 KMGH    (24)MgH,"4s2.5s1 X,2,0,e,2,0","4s2.2p1 A,2,1,f,2,1",0.5,1.0,1.0
TiO 1,4803.6254,-1.074,0.14239954552352577,16.0,2.722767118994082,17.0,99.0,99.0,99.0,7.327999999999999,0.0,0.0,0.006,_          0.0636352          3 wl:PPN2012   3 gf:PPN2012   3 PPN2012   3 PPN2012   3 PPN2012   3 PPN2012   3 PPN2012   3 PPN2012   3 PPN2012    (46)TiO,"8s2.9s1.3p4.1d1 X,3,2,0,15,1","8s2.11s1.3p4.1d1 C,3,2,0,16,3",0.5,1.0,1.0
TiO 1,4803.6255,-0.9670000000000001,0.42903490452720855,6.0,3.0093682459608426,7.0,99.0,99.0,99.0,7.415,0.0,0.0,0.003,_                             6 wl:PPN2012   6 gf:PPN2012   6 PPN2012   6 PPN2012   6 PPN2012   6 PPN2012   6 PPN2012   6 PPN2012   6 PPN2012    (48)TiO,"8s2.9s1.3p4.1d1 a,1,2,0,6,0","8s2.11s1.3p4.1d1 f,1,2,0,7,2",0.5,1.0,1.0
TiO 1,4803.6345,0.064,0.671300770289022,51.0,3.251629276338955,50.0,99.0,99.0,99.0,7.3,0.0,0.0,0.012,_                             6 wl:PPN2012   6 gf:PPN2012   6 PPN2012   6 PPN2012   6 PPN2012   6 PPN2012   6 PPN2012   6 PPN2012   6 PPN2012    (48)TiO,"8s2.9s1.3p4.1d1 X,3,2,0,51,4","8s2.11s1.3p4.1d1 C,3,2,0,50,7",0.5,1.0,1.0
TiO 1,4803.6481,-1.244,0.14579331536719656,12.0,2.726149283916869,13.0,99.0,99.0,99.0,7.329,0.0,0.0,0.004,_          0.0645710          2 wl:PPN2012   2 gf:PPN2012   2 PPN2012   2 PPN2012   2 PPN2012   2 PPN2012   2 PPN2012   2 PPN2012   2 PPN2012    (47)TiO,"8s2.9s1.3p4.1d1 X,3,2,0,12,1","8s2.11s1.3p4.1d1 C,3,2,0,13,3",0.5,1.0,1.0
TiO 1,4803.6517,-0.5,0.4489672240334936,18.0,3.029286555252814,19.0,99.0,99.0,99.0,7.4110000000000005,0.0,0.0,0.006999999999999999,_                             6 wl:PPN2012   6 gf:PPN2012   6 PPN2012   6 PPN2012   6 PPN2012   6 PPN2012   6 PPN2012   6 PPN2012   6 PPN2012    (48)TiO,"8s2.9s1.3p4.1d1 a,1,2,0,18,0","8s2.11s1.3p4.1d1 f,1,2,0,19,2",0.5,1.0,1.0
TiO 1,4803.6633,-0.7859999999999999,0.3154946151183355,66.0,2.895854142014475,67.0,99.0,99.0,99.0,7.301,0.0,0.0,0.006,_          0.0865081          8 wl:PPN2012   8 gf:PPN2012   8 PPN2012   8 PPN2012   8 PPN2012   8 PPN2012   8 PPN2012   8 PPN2012   8 PPN2012    (49)TiO,"8s2.9s1.3p4.1d1 X,3,2,0,67,0","8s2.11s1.3p4.1d1 C,3,2,0,68,2",0.5,1.0,1.0
Ti 2,4803.6643,-5.113,1.242916906782729,2.5,3.8232294064727688,1.5,1.6,0.41,2.48,8.38,-6.41,-7.84,0.044000000000000004,_          Kurucz TiII 2016  30 wl:K16  30 gf:K16  30 K16  30 K16  30 K16  30 K16  30 K16  30 K16  30 K16    Ti+,3d2.(3P).4s b4P,3d2.(3F).4p z4F*,0.5,1.0,2.0
TiO 1,4803.6691,-1.263,0.48074887447145537,28.0,3.061058869680706,29.0,99.0,99.0,99.0,7.409,0.0,0.0,0.001,_                             3 wl:PPN2012   3 gf:PPN2012   3 PPN2012   3 PPN2012   3 PPN2012   3 PPN2012   3 PPN2012   3 PPN2012   3 PPN2012    (46)TiO,"8s2.9s1.3p4.1d1 a,1,2,0,28,0","8s2.11s1.3p4.1d1 f,1,2,0,29,2",0.5,1.0,1.0
TiO 1,4803.6714,-1.621,0.13745534089207126,5.0,2.7178058913323144,6.0,99.0,99.0,99.0,7.332000000000001,0.0,0.0,0.002,_          0.0778293          2 wl:PPN2012   2 gf:PPN2012   2 PPN2012   2 PPN2012   2 PPN2012   2 PPN2012   2 PPN2012   2 PPN2012   2 PPN2012    (47)TiO,"8s2.9s1.3p4.1d1 X,3,2,0,5,1","8s2.11s1.3p4.1d1 C,3,2,0,6,3",0.5,1.0,1.0
TiO 1,4803.6771,0.201,0.17979812644999518,48.0,2.760149470389102,47.0,99.0,99.0,99.0,7.316,0.0,0.0,0.099,_          0.0849964          6 wl:PPN2012   6 gf:PPN2012   6 PPN2012   6 PPN2012   6 PPN2012   6 PPN2012   6 PPN2012   6 PPN2012   6 PPN2012    (48)TiO,"8s2.9s1.3p4.1d1 X,3,2,0,49,0","8s2.11s1.3p4.1d1 C,3,2,0,48,2",0.5,1.0,1.0
TiO 1,4803.6784,-0.6409999999999999,0.3274574163875369,67.0,2.9078093182555325,68.0,99.0,99.0,99.0,7.3,0.0,0.0,0.008,_          0.0873777          2 wl:PPN2012   2 gf:PPN2012   2 PPN2012   2 PPN2012   2 PPN2012   2 PPN2012   2 PPN2012   2 PPN2012   2 PPN2012    (47)TiO,"8s2.9s1.3p4.1d1 X,3,2,0,68,0","8s2.11s1.3p4.1d1 C,3,2,0,69,2",0.5,1.0,1.0
TiO 1,4803.6804,0.37,0.7428646226466559,76.0,3.3234620008272224,75.0,99.0,99.0,99.0,7.285,0.0,0.0,0.018000000000000002,_          0.546240           6 wl:PPN2012   6 gf:PPN2012   6 PPN2012   6 PPN2012   6 PPN2012   6 PPN2012   6 PPN2012   6 PPN2012   6 PPN2012    (48)TiO,"8s2.9s1.3p4.1d1 X,3,2,0,75,3","8s2.11s1.3p4.1d1 C,3,2,0,74,6",0.5,1.0,1.0
CH 1,4803.681,-2.873,1.014887030558633,5.5,3.5951907273706527,6.5,99.0,99.0,99.0,6.27,0.0,0.0,0.002,_                            37 wl:JLIY  37 gf:JLIY  37 JLIY  37 JLIY  37 JLIY  37 JLIY  37 JLIY  37 JLIY  37 JLIY    (12)CH,"1s2.2s2.3s2.1p1 X,2,1,f,5,3","1s2.2s2.3s1.1p2 A,2,2,f,6,2",0.5,1.0,1.0
TiO 1,4803.684,-0.797,0.3082687788945172,67.0,2.8886032981780274,68.0,99.0,99.0,99.0,7.301,0.0,0.0,0.006,_          0.0604789          4 wl:PPN2012   4 gf:PPN2012   4 PPN2012   4 PPN2012   4 PPN2012   4 PPN2012   4 PPN2012   4 PPN2012   4 PPN2012    (50)TiO,"8s2.9s1.3p4.1d1 X,3,2,0,67,0","8s2.11s1.3p4.1d1 C,3,2,0,68,2",0.5,1.0,1.0
TiO 1,4803.6927,-0.961,0.17191021461168646,47.0,2.7522537847416118,46.0,99.0,99.0,99.0,7.316,0.0,0.0,0.006999999999999999,_          0.0861867          4 wl:PPN2012   4 gf:PPN2012   4 PPN2012   4 PPN2012   4 PPN2012   4 PPN2012   4 PPN2012   4 PPN2012   4 PPN2012    (50)TiO,"8s2.9s1.3p4.1d1 X,3,2,0,48,0","8s2.11s1.3p4.1d1 C,3,2,0,47,2",0.5,1.0,1.0
TiO 1,4803.7219,-0.414,0.9283189453804975,102.0,3.4984785899128443,101.0,99.0,99.0,99.0,7.2589999999999995,0.0,0.0,0.001,_          -18.9185           3 wl:PPN2012   3 gf:PPN2012   3 PPN2012   3 PPN2012   3 PPN2012   3 PPN2012   3 PPN2012   3 PPN2012   3 PPN2012    (46)TiO,"8s2.9s1.3p4.1d1 X,3,2,0,101,2","8s2.11s1.3p4.1d1 C,3,2,0,100,5",0.5,1.0,1.0
TiO 1,4803.7284,0.052000000000000005,1.220268316681429,31.0,3.8005463735614113,32.0,99.0,99.0,99.0,7.361000000000001,0.0,0.0,0.001,_                             6 wl:PPN2012   6 gf:PPN2012   6 PPN2012   6 PPN2012   6 PPN2012   6 PPN2012   6 PPN2012   6 PPN2012   6 PPN2012    (48)TiO,"8s2.9s1.3p4.1d1 a,1,2,0,31,6","8s2.11s1.3p4.1d1 f,1,2,0,32,9",0.5,1.0,1.0
TiO 1,4803.7375,-0.888,0.6891791427831774,51.0,3.269452376677878,50.0,99.0,99.0,99.0,7.3,0.0,0.0,0.001,_                             3 wl:PPN2012   3 gf:PPN2012   3 PPN2012   3 PPN2012   3 PPN2012   3 PPN2012   3 PPN2012   3 PPN2012   3 PPN2012    (46)TiO,"8s2.9s1.3p4.1d1 X,3,2,0,52,4","8s2.11s1.3p4.1d1 C,3,2,0,51,7",0.5,1.0,1.0
Nd 2,4803.74,-1.54,0.8229364318141468,7.5,3.4032062809402563,6.5,1.0,1.13,0.56,0.0,0.0,0.0,0.18600000000000003,E 0.04     Wisconsin REE ex  11 wl:HLSC  11 gf:HLSC  11 HLSC  11 HLSC  11 HLSC  11 HLSC  11 HLSC  11 HLSC  11 HLSC    Nd+,4f4.(5I).5d 6L,* *,1.096478196143185,1.0,2.0
TiO 1,4803.7437,-1.2109999999999999,0.14751353411499585,13.0,2.727817615278027,14.0,99.0,99.0,99.0,7.327999999999999,0.0,0.0,0.004,_          0.0636212          2 wl:PPN2012   2 gf:PPN2012   2 PPN2012   2 PPN2012   2 PPN2012   2 PPN2012   2 PPN2012   2 PPN2012   2 PPN2012    (47)TiO,"8s2.9s1.3p4.1d1 X,3,2,0,13,1","8s2.11s1.3p4.1d1 C,3,2,0,14,3",0.5,1.0,1.0
TiO 1,4803.7437,-1.0490000000000002,0.4282373389817227,5.0,3.00850729969361,6.0,99.0,99.0,99.0,7.415,0.0,0.0,0.002,_                             6 wl:PPN2012   6 gf:PPN2012   6 PPN2012   6 PPN2012   6 PPN2012   6 PPN2012   6 PPN2012   6 PPN2012   6 PPN2012    (48)TiO,"8s2.9s1.3p4.1d1 a,1,2,0,5,0","8s2.11s1.3p4.1d1 f,1,2,0,6,2",0.5,1.0,1.0
TiO 1,4803.7459,-1.03,0.15855994338385607,18.0,2.738862003604469,19.0,99.0,99.0,99.0,7.327000000000001,0.0,0.0,0.006999999999999999,_          0.0619642          3 wl:PPN2012   3 gf:PPN2012   3 PPN2012   3 PPN2012   3 PPN2012   3 PPN2012   3 PPN2012   3 PPN2012   3 PPN2012    (46)TiO,"8s2.9s1.3p4.1d1 X,3,2,0,18,1","8s2.11s1.3p4.1d1 C,3,2,0,19,3",0.5,1.0,1.0
Mn 1,4803.7622,-2.041,4.794419322490833,3.5,7.374679252881145,2.5,1.13,1.28,0.94,7.97,-6.06,-7.77,0.005,_          Kurucz MnI 2007   39 wl:K07  39 gf:K07  39 K07  39 K07  39 K07  39 K07  39 K07  39 K07  39 K07    Mn,3d6.(3F2).4s a2F,3d6.(a3P).4p u4P*,0.5,1.0,1.0
TiO 1,4803.7739,-1.724,0.13679348844913625,4.0,2.717090626497109,5.0,99.0,99.0,99.0,7.332999999999999,0.0,0.0,0.001,_          0.0807505          2 wl:PPN2012   2 gf:PPN2012   2 PPN2012   2 PPN2012   2 PPN2012   2 PPN2012   2 PPN2012   2 PPN2012   2 PPN2012    (47)TiO,"8s2.9s1.3p4.1d1 X,3,2,0,4,1","8s2.11s1.3p4.1d1 C,3,2,0,5,3",0.5,1.0,1.0
TiO 1,4803.7745,-0.47700000000000004,0.4514910463571955,19.0,3.031744417983462,20.0,99.0,99.0,99.0,7.4110000000000005,0.0,0.0,0.006999999999999999,_                             6 wl:PPN2012   6 gf:PPN2012   6 PPN2012   6 PPN2012   6 PPN2012   6 PPN2012   6 PPN2012   6 PPN2012   6 PPN2012    (48)TiO,"8s2.9s1.3p4.1d1 a,1,2,0,19,0","8s2.11s1.3p4.1d1 f,1,2,0,20,2",0.5,1.0,1.0
TiO 1,4803.7827,-1.78,0.1362074027492752,2.0,2.716456323342852,2.0,99.0,99.0,99.0,7.285,0.0,0.0,0.001,_                             3 wl:PPN2012   3 gf:PPN2012   3 PPN2012   3 PPN2012   3 PPN2012   3 PPN2012   3 PPN2012   3 PPN2012   3 PPN2012    (46)TiO,"8s2.9s1.3p4.1d1 X,3,2,0,2,1","8s2.11s1.3p4.1d1 C,3,2,0,2,3",0.5,1.0,1.0
TiO 1,4803.7991,0.36200000000000004,0.3201567309037059,68.0,2.9004286629643334,69.0,99.0,99.0,99.0,7.3,0.0,0.0,0.085,_          0.0590892          6 wl:PPN2012   6 gf:PPN2012   6 PPN2012   6 PPN2012   6 PPN2012   6 PPN2012   6 PPN2012   6 PPN2012   6 PPN2012    (48)TiO,"8s2.9s1.3p4.1d1 X,3,2,0,68,0","8s2.11s1.3p4.1d1 C,3,2,0,69,2",0.5,1.0,1.0
TiO 1,4803.8015,0.165,0.7877596353079223,68.0,3.3679984883846648,69.0,99.0,99.0,99.0,7.287000000000001,0.0,0.0,0.009000000000000001,_                             6 wl:PPN2012   6 gf:PPN2012   6 PPN2012   6 PPN2012   6 PPN2012   6 PPN2012   6 PPN2012   6 PPN2012   6 PPN2012    (48)TiO,"8s2.9s1.3p4.1d1 X,3,2,0,67,4","8s2.11s1.3p4.1d1 C,3,2,0,68,7",0.5,1.0,1.0
TiO 1,4803.8041,-0.9420000000000001,0.17131810327982835,49.0,2.7515992721631672,48.0,99.0,99.0,99.0,7.316,0.0,0.0,0.008,_          0.0814220          4 wl:PPN2012   4 gf:PPN2012   4 PPN2012   4 PPN2012   4 PPN2012   4 PPN2012   4 PPN2012   4 PPN2012   4 PPN2012    (50)TiO,"8s2.9s1.3p4.1d1 X,3,2,0,49,0","8s2.11s1.3p4.1d1 C,3,2,0,48,2",0.5,1.0,1.0
TiO 1,4803.8124,-1.05,0.14463390194139414,17.0,2.7248980353960004,18.0,99.0,99.0,99.0,7.327000000000001,0.0,0.0,0.006,_          0.0578707          3 wl:PPN2012   3 gf:PPN2012   3 PPN2012   3 PPN2012   3 PPN2012   3 PPN2012   3 PPN2012   3 PPN2012   3 PPN2012    (46)TiO,"8s2.9s1.3p4.1d1 X,3,2,0,16,1","8s2.11s1.3p4.1d1 C,3,2,0,17,3",0.5,1.0,1.0
TiO 1,4803.8271,0.212,1.289164996186246,84.0,3.869390087017069,84.0,99.0,99.0,99.0,7.575,0.0,0.0,0.001,_                             6 wl:PPN2012   6 gf:PPN2012   6 PPN2012   6 PPN2012   6 PPN2012   6 PPN2012   6 PPN2012   6 PPN2012   6 PPN2012    (48)TiO,"8s2.9s1.3p4.1d1 X,3,2,-,83,7","8s2.3p4.4p1.1d1 B,3,1,+,83,10",0.5,1.0,1.0
TiO 1,4803.855,-1.3519999999999999,0.13006631666754281,9.0,2.7103411747552304,10.0,99.0,99.0,99.0,7.33,0.0,0.0,0.003,_          0.120511           2 wl:PPN2012   2 gf:PPN2012   2 PPN2012   2 PPN2012   2 PPN2012   2 PPN2012   2 PPN2012   2 PPN2012   2 PPN2012    (47)TiO,"8s2.9s1.3p4.1d1 X,3,2,0,8,1","8s2.11s1.3p4.1d1 C,3,2,0,9,3",0.5,1.0,1.0
CN 1,4803.8552,-2.847,1.1035990876746815,39.5,3.683809052433413,39.5,99.0,99.0,99.0,6.17,0.0,0.0,0.001,_                            48 wl:KCN  48 gf:KCN  48 KCN  48 KCN  48 KCN  48 KCN  48 KCN  48 KCN  48 KCN    (12)C(14)N,"3s2.4s2.1p4.5s1 X,2,0,,39,3","3s2.4s2.1p3.5s2 A,2,1,f,39,11",0.5,1.0,1.0
TiO 1,4803.863,-1.399,0.12888948346199586,8.0,2.709165804563214,9.0,99.0,99.0,99.0,7.33,0.0,0.0,0.003,_          0.131206           2 wl:PPN2012   2 gf:PPN2012   2 PPN2012   2 PPN2012   2 PPN2012   2 PPN2012   2 PPN2012   2 PPN2012   2 PPN2012    (47)TiO,"8s2.9s1.3p4.1d1 X,3,2,0,7,1","8s2.11s1.3p4.1d1 C,3,2,0,8,3",0.5,1.0,1.0
TiO 1,4803.8642,-1.18,0.14936596961097726,14.0,2.7296049714687567,15.0,99.0,99.0,99.0,7.327999999999999,0.0,0.0,0.005,_          0.0628868          2 wl:PPN2012   2 gf:PPN2012   2 PPN2012   2 PPN2012   2 PPN2012   2 PPN2012   2 PPN2012   2 PPN2012   2 PPN2012    (47)TiO,"8s2.9s1.3p4.1d1 X,3,2,0,14,1","8s2.11s1.3p4.1d1 C,3,2,0,15,3",0.5,1.0,1.0
TiO 1,4803.8703,-0.583,0.3326214573995257,69.0,2.9128543592347897,70.0,99.0,99.0,99.0,7.2989999999999995,0.0,0.0,0.009000000000000001,_          0.0576986          3 wl:PPN2012   3 gf:PPN2012   3 PPN2012   3 PPN2012   3 PPN2012   3 PPN2012   3 PPN2012   3 PPN2012   3 PPN2012    (46)TiO,"8s2.9s1.3p4.1d1 X,3,2,0,69,0","8s2.11s1.3p4.1d1 C,3,2,0,70,2",0.5,1.0,1.0
TiO 1,4803.8713,-1.31,0.13137387881090226,10.0,2.711634577903239,11.0,99.0,99.0,99.0,7.329,0.0,0.0,0.004,_          0.110494           2 wl:PPN2012   2 gf:PPN2012   2 PPN2012   2 PPN2012   2 PPN2012   2 PPN2012   2 PPN2012   2 PPN2012   2 PPN2012    (47)TiO,"8s2.9s1.3p4.1d1 X,3,2,0,9,1","8s2.11s1.3p4.1d1 C,3,2,0,10,3",0.5,1.0,1.0