species,wlcent,gflog,excit,j_lo,e_upp,j_up,lande_lower,lande_upper,lande,gamrad,gamqst,gamvw,depth,reference,term_lower,term_upper,error,atom_number,ionization
TiO 1,4874.7977,-0.7020000000000001,0.7783776394995799,39.0,3.3210386057034715,40.0,99.0,99.0,99.0,7.391,0.0,0.0,0.001,_                             3 wl:PPN2012   3 gf:PPN2012   3 PPN2012   3 PPN2012   3 PPN2012   3 PPN2012   3 PPN2012   3 PPN2012   3 PPN2012    (46)TiO,"8s2.9s1.3p4.1d1 a,1,2,0,39,2","8s2.11s1.3p4.1d1 f,1,2,0,40,4",0.5,1.0,1.0
TiO 1,4874.8077,0.172,1.2060376088705238,84.0,3.7486933305428622,84.0,99.0,99.0,99.0,7.487,0.0,0.0,0.002,_                             6 wl:PPN2012   6 gf:PPN2012   6 PPN2012   6 PPN2012   6 PPN2012   6 PPN2012   6 PPN2012   6 PPN2012   6 PPN2012    (48)TiO,"8s2.9s1.3p4.1d1 X,3,2,-,85,6","8s2.3p4.4p1.1d1 B,3,1,+,85,9",0.5,1.0,1.0
TiO 1,4874.8203,0.426,0.924797645391309,75.0,3.467446833096441,76.0,99.0,99.0,99.0,7.381,0.0,0.0,0.01,_                             6 wl:PPN2012   6 gf:PPN2012   6 PPN2012   6 PPN2012   6 PPN2012   6 PPN2012   6 PPN2012   6 PPN2012   6 PPN2012    (48)TiO,"8s2.9s1.3p4.1d1 a,1,2,0,75,1","8s2.11s1.3p4.1d1 f,1,2,0,76,3",0.5,1.0,1.0
CN 1,4874.8452,-3.7110000000000003,0.44132261878430024,27.5,2.9839588005471174,28.5,99.0,99.0,99.0,7.18,0.0,0.0,0.001,_                            28 wl:BRW  28 gf:BRW  28 BRW  28 BRW  28 BRW  28 BRW  28 BRW  28 BRW  28 BRW    (12)C(14)N,"3s2.4s2.1p4.5s1 X,2,0,f,28,1","3s2.4s2.1p3.5s2 A,2,1,f,29,8",0.5,1.0,1.0
TiO 1,4874.8698,-0.593,0.8031228147785197,51.0,3.3457461765753185,51.0,99.0,99.0,99.0,7.394,0.0,0.0,0.002,_                             6 wl:PPN2012   6 gf:PPN2012   6 PPN2012   6 PPN2012   6 PPN2012   6 PPN2012   6 PPN2012   6 PPN2012   6 PPN2012    (48)TiO,"8s2.9s1.3p4.1d1 X,3,2,+,52,5","8s2.3p4.4p1.1d1 B,3,1,-,52,9",0.5,1.0,1.0
TiO 1,4874.8729,0.451,0.4247768904366525,66.0,2.9674783250825985,65.0,99.0,99.0,99.0,7.3020000000000005,0.0,0.0,0.071,_          0.152697           6 wl:PPN2012   6 gf:PPN2012   6 PPN2012   6 PPN2012   6 PPN2012   6 PPN2012   6 PPN2012   6 PPN2012   6 PPN2012    (48)TiO,"8s2.9s1.3p4.1d1 X,3,2,0,66,1","8s2.11s1.3p4.1d1 C,3,2,0,65,3",0.5,1.0,1.0
Ti 1,4874.8746,-0.39,3.319424951373398,5.0,5.86204575909573,5.0,1.25,1.27,1.26,8.72,-5.43,-7.66,0.43700000000000006,E0.06      Kurucz TiI 2016   22 wl:K16  24 gf:NWL  22 K16  22 K16  22 K16  22 K16  22 K16  22 K16  22 K16    Ti,3d3.(4F).4p y5G*,3d2.4p2 g5G,1.1481536214968828,1.0,1.0
TiO 1,4874.8835,0.235,1.1541438494415257,102.0,3.6967600697485503,103.0,99.0,99.0,99.0,7.25,0.0,0.0,0.003,_                             6 wl:PPN2012   6 gf:PPN2012   6 PPN2012   6 PPN2012   6 PPN2012   6 PPN2012   6 PPN2012   6 PPN2012   6 PPN2012    (48)TiO,"8s2.9s1.3p4.1d1 X,3,2,0,101,4","8s2.11s1.3p4.1d1 C,3,2,0,102,7",0.5,1.0,1.0
TiO 1,4874.884,-0.757,0.4599424911698455,53.0,3.0025765156076267,54.0,99.0,99.0,99.0,7.308,0.0,0.0,0.004,_          0.0345761          2 wl:PPN2012   2 gf:PPN2012   2 PPN2012   2 PPN2012   2 PPN2012   2 PPN2012   2 PPN2012   2 PPN2012   2 PPN2012    (47)TiO,"8s2.9s1.3p4.1d1 X,3,2,0,54,2","8s2.11s1.3p4.1d1 C,3,2,0,55,4",0.5,1.0,1.0
TiO 1,4874.8896,-0.9059999999999999,0.43525866327181406,54.0,2.977882459013304,55.0,99.0,99.0,99.0,7.307,0.0,0.0,0.003,_          0.0206760          4 wl:PPN2012   4 gf:PPN2012   4 PPN2012   4 PPN2012   4 PPN2012   4 PPN2012   4 PPN2012   4 PPN2012   4 PPN2012    (50)TiO,"8s2.9s1.3p4.1d1 X,3,2,0,53,2","8s2.11s1.3p4.1d1 C,3,2,0,54,4",0.5,1.0,1.0
TiO 1,4874.8897,0.24600000000000002,0.7251879724417845,51.0,3.2678010311517736,50.0,99.0,99.0,99.0,7.394,0.0,0.0,0.013999999999999999,_                             6 wl:PPN2012   6 gf:PPN2012   6 PPN2012   6 PPN2012   6 PPN2012   6 PPN2012   6 PPN2012   6 PPN2012   6 PPN2012    (48)TiO,"8s2.9s1.3p4.1d1 a,1,2,0,51,1","8s2.11s1.3p4.1d1 f,1,2,0,50,3",0.5,1.0,1.0
TiO 1,4874.8972,-0.532,0.5162722812001274,87.0,3.058901916597318,86.0,99.0,99.0,99.0,7.2829999999999995,0.0,0.0,0.005,_          0.0392700          2 wl:PPN2012   2 gf:PPN2012   2 PPN2012   2 PPN2012   2 PPN2012   2 PPN2012   2 PPN2012   2 PPN2012   2 PPN2012    (47)TiO,"8s2.9s1.3p4.1d1 X,3,2,0,87,0","8s2.11s1.3p4.1d1 C,3,2,0,86,2",0.5,1.0,1.0
TiO 1,4874.8978,-0.902,0.44980210882241795,52.0,2.992428533028894,53.0,99.0,99.0,99.0,7.308,0.0,0.0,0.003,_          0.0340461          8 wl:PPN2012   8 gf:PPN2012   8 PPN2012   8 PPN2012   8 PPN2012   8 PPN2012   8 PPN2012   8 PPN2012   8 PPN2012    (49)TiO,"8s2.9s1.3p4.1d1 X,3,2,0,53,2","8s2.11s1.3p4.1d1 C,3,2,0,54,4",0.5,1.0,1.0
TiO 1,4874.8996,-0.701,0.4070633425346139,66.0,2.94972800346759,65.0,99.0,99.0,99.0,7.3020000000000005,0.0,0.0,0.005,_          0.108857           4 wl:PPN2012   4 gf:PPN2012   4 PPN2012   4 PPN2012   4 PPN2012   4 PPN2012   4 PPN2012   4 PPN2012   4 PPN2012    (50)TiO,"8s2.9s1.3p4.1d1 X,3,2,0,65,1","8s2.11s1.3p4.1d1 C,3,2,0,64,3",0.5,1.0,1.0
TiO 1,4874.9112,0.5770000000000001,1.2542987800946843,130.0,3.796381496399995,129.0,99.0,99.0,99.0,7.216,0.0,0.0,0.004,_          -0.995489          6 wl:PPN2012   6 gf:PPN2012   6 PPN2012   6 PPN2012   6 PPN2012   6 PPN2012   6 PPN2012   6 PPN2012   6 PPN2012    (48)TiO,"8s2.9s1.3p4.1d1 X,3,2,0,131,1","8s2.11s1.3p4.1d1 C,3,2,0,130,4",0.5,1.0,1.0
TiO 1,4874.9417,0.254,0.445436464050038,55.0,2.9880278379238896,56.0,99.0,99.0,99.0,7.307,0.0,0.0,0.042,_          0.0104962          6 wl:PPN2012   6 gf:PPN2012   6 PPN2012   6 PPN2012   6 PPN2012   6 PPN2012   6 PPN2012   6 PPN2012   6 PPN2012    (48)TiO,"8s2.9s1.3p4.1d1 X,3,2,0,54,2","8s2.11s1.3p4.1d1 C,3,2,0,55,4",0.5,1.0,1.0
TiO 1,4874.9612,-0.691,0.4561524678310601,56.0,2.998727550181364,57.0,99.0,99.0,99.0,7.306,0.0,0.0,0.005,_          -0.00119984        3 wl:PPN2012   3 gf:PPN2012   3 PPN2012   3 PPN2012   3 PPN2012   3 PPN2012   3 PPN2012   3 PPN2012   3 PPN2012    (46)TiO,"8s2.9s1.3p4.1d1 X,3,2,0,55,2","8s2.11s1.3p4.1d1 C,3,2,0,56,4",0.5,1.0,1.0
TiO 1,4874.9644,-0.552,0.4324291579092496,65.0,2.9750454526067927,64.0,99.0,99.0,99.0,7.3020000000000005,0.0,0.0,0.006999999999999999,_          0.0810789          2 wl:PPN2012   2 gf:PPN2012   2 PPN2012   2 PPN2012   2 PPN2012   2 PPN2012   2 PPN2012   2 PPN2012   2 PPN2012    (47)TiO,"8s2.9s1.3p4.1d1 X,3,2,0,66,1","8s2.11s1.3p4.1d1 C,3,2,0,65,3",0.5,1.0,1.0
TiO 1,4874.9739,0.215,0.7610171489982573,36.0,3.303586218114984,37.0,99.0,99.0,99.0,7.392,0.0,0.0,0.012,_                             6 wl:PPN2012   6 gf:PPN2012   6 PPN2012   6 PPN2012   6 PPN2012   6 PPN2012   6 PPN2012   6 PPN2012   6 PPN2012    (48)TiO,"8s2.9s1.3p4.1d1 a,1,2,0,36,2","8s2.11s1.3p4.1d1 f,1,2,0,37,4",0.5,1.0,1.0
TiO 1,4874.9763,-1.073,0.3307113196580417,36.0,2.873286166438371,35.0,99.0,99.0,99.0,7.319,0.0,0.0,0.003,_          0.0136237          4 wl:PPN2012   4 gf:PPN2012   4 PPN2012   4 PPN2012   4 PPN2012   4 PPN2012   4 PPN2012   4 PPN2012   4 PPN2012    (50)TiO,"8s2.9s1.3p4.1d1 X,3,2,0,35,2","8s2.11s1.3p4.1d1 C,3,2,0,34,4",0.5,1.0,1.0
TiO 1,4874.9787,-0.888,0.4501265506703578,54.0,2.9927295666603517,55.0,99.0,99.0,99.0,7.307,0.0,0.0,0.003,_          0.0698990          8 wl:PPN2012   8 gf:PPN2012   8 PPN2012   8 PPN2012   8 PPN2012   8 PPN2012   8 PPN2012   8 PPN2012   8 PPN2012    (49)TiO,"8s2.9s1.3p4.1d1 X,3,2,0,54,2","8s2.11s1.3p4.1d1 C,3,2,0,55,4",0.5,1.0,1.0
TiO 1,4874.9896,-0.494,0.4229607451152706,67.0,2.9655790111615534,66.0,99.0,99.0,99.0,7.301,0.0,0.0,0.008,_          0.110150           3 wl:PPN2012   3 gf:PPN2012   3 PPN2012   3 PPN2012   3 PPN2012   3 PPN2012   3 PPN2012   3 PPN2012   3 PPN2012    (46)TiO,"8s2.9s1.3p4.1d1 X,3,2,0,66,1","8s2.11s1.3p4.1d1 C,3,2,0,65,3",0.5,1.0,1.0
CN 1,4874.9918,-3.57,0.36039242982246456,21.5,2.902952113335443,21.5,99.0,99.0,99.0,7.18,0.0,0.0,0.002,_                            28 wl:BRW  28 gf:BRW  28 BRW  28 BRW  28 BRW  28 BRW  28 BRW  28 BRW  28 BRW    (12)C(14)N,"3s2.4s2.1p4.5s1 X,2,0,e,21,1","3s2.4s2.1p3.5s2 A,2,1,f,21,8",0.5,1.0,1.0
Ti 1,4874.9975,-4.336,2.2363293784027465,4.0,4.778886086294985,3.0,0.8,1.08,0.38,8.3,-5.4,-7.63,0.004,_          Kurucz TiI 2016   22 wl:K16  22 gf:K16  22 K16  22 K16  22 K16  22 K16  22 K16  22 K16  22 K16    Ti,3d3.(2H).4s a3H,3d3.(2G).4p t3F*,0.5,1.0,1.0
TiO 1,4875.01,0.551,0.7209816349647339,105.0,3.263484521316851,106.0,99.0,99.0,99.0,7.257999999999999,0.0,0.0,0.028999999999999998,_          -0.0908384         6 wl:PPN2012   6 gf:PPN2012   6 PPN2012   6 PPN2012   6 PPN2012   6 PPN2012   6 PPN2012   6 PPN2012   6 PPN2012    (48)TiO,"8s2.9s1.3p4.1d1 X,3,2,0,104,0","8s2.11s1.3p4.1d1 C,3,2,0,105,2",0.5,1.0,1.0
TiO 1,4875.0163,0.091,0.33755103189567875,37.0,2.880107405030585,36.0,99.0,99.0,99.0,7.318,0.0,0.0,0.044000000000000004,_          0.0180128          6 wl:PPN2012   6 gf:PPN2012   6 PPN2012   6 PPN2012   6 PPN2012   6 PPN2012   6 PPN2012   6 PPN2012   6 PPN2012    (48)TiO,"8s2.9s1.3p4.1d1 X,3,2,0,36,2","8s2.11s1.3p4.1d1 C,3,2,0,35,4",0.5,1.0,1.0
TiO 1,4875.0166,0.45899999999999996,0.5184308212812427,86.0,3.0610372964303463,85.0,99.0,99.0,99.0,7.284,0.0,0.0,0.051,_          0.114488           6 wl:PPN2012   6 gf:PPN2012   6 PPN2012   6 PPN2012   6 PPN2012   6 PPN2012   6 PPN2012   6 PPN2012   6 PPN2012    (48)TiO,"8s2.9s1.3p4.1d1 X,3,2,0,87,0","8s2.11s1.3p4.1d1 C,3,2,0,86,2",0.5,1.0,1.0
TiO 1,4875.0206,-0.8490000000000001,0.3447926389094152,38.0,2.8873489500522225,37.0,99.0,99.0,99.0,7.318,0.0,0.0,0.005,_          0.0222144          3 wl:PPN2012   3 gf:PPN2012   3 PPN2012   3 PPN2012   3 PPN2012   3 PPN2012   3 PPN2012   3 PPN2012   3 PPN2012    (46)TiO,"8s2.9s1.3p4.1d1 X,3,2,0,37,2","8s2.11s1.3p4.1d1 C,3,2,0,36,4",0.5,1.0,1.0
Fe 1,4875.0299,-1.121,4.7331407528122105,3.0,7.275680598853593,3.0,1.32,1.2,1.26,8.49,-4.38,-7.4,0.521,_          Kurucz Fe I 2014   5 wl:K14   5 gf:K14   5 K14   5 K14   5 K14   5 K14   5 K14   5 K14   5 K14    Fe,3d7.(4F).4p y3D*,3d6.4s.(4D).4d 3D,0.5,1.0,1.0
TiO 1,4875.0399,-0.447,0.6040845354014559,84.0,3.146689299568634,85.0,99.0,99.0,99.0,7.2829999999999995,0.0,0.0,0.005,_          0.134533           2 wl:PPN2012   2 gf:PPN2012   2 PPN2012   2 PPN2012   2 PPN2012   2 PPN2012   2 PPN2012   2 PPN2012   2 PPN2012    (47)TiO,"8s2.9s1.3p4.1d1 X,3,2,0,84,1","8s2.11s1.3p4.1d1 C,3,2,0,85,3",0.5,1.0,1.0
TiO 1,4875.0537,-0.743,0.4605743518354125,55.0,3.003141139642906,56.0,99.0,99.0,99.0,7.307,0.0,0.0,0.004,_          0.0755430          2 wl:PPN2012   2 gf:PPN2012   2 PPN2012   2 PPN2012   2 PPN2012   2 PPN2012   2 PPN2012   2 PPN2012   2 PPN2012    (47)TiO,"8s2.9s1.3p4.1d1 X,3,2,0,55,2","8s2.11s1.3p4.1d1 C,3,2,0,56,4",0.5,1.0,1.0
TiO 1,4875.0724,-0.451,0.6090092125218088,83.0,3.1515608866556306,84.0,99.0,99.0,99.0,7.2829999999999995,0.0,0.0,0.005,_          0.0651816          2 wl:PPN2012   2 gf:PPN2012   2 PPN2012   2 PPN2012   2 PPN2012   2 PPN2012   2 PPN2012   2 PPN2012   2 PPN2012    (47)TiO,"8s2.9s1.3p4.1d1 X,3,2,0,84,1","8s2.11s1.3p4.1d1 C,3,2,0,85,3",0.5,1.0,1.0
TiO 1,4875.0745,-1.111,0.5578718186894771,69.0,3.100388392896995,69.0,99.0,99.0,99.0,7.256,0.0,0.0,0.001,_                             6 wl:PPN2012   6 gf:PPN2012   6 PPN2012   6 PPN2012   6 PPN2012   6 PPN2012   6 PPN2012   6 PPN2012   6 PPN2012    (48)TiO,"8s2.9s1.3p4.1d1 X,3,2,-,68,2","8s2.3p4.4p1.1d1 B,3,1,+,68,6",0.5,1.0,1.0
TiO 1,4875.0844,0.48,1.2156295843157015,115.0,3.7643555103040787,116.0,99.0,99.0,99.0,7.234,0.0,0.0,0.004,_          11.8870            6 wl:PPN2012   6 gf:PPN2012   6 PPN2012   6 PPN2012   6 PPN2012   6 PPN2012   6 PPN2012   6 PPN2012   6 PPN2012    (48)TiO,"8s2.9s1.3p4.1d1 X,3,2,0,114,3","8s2.11s1.3p4.1d1 C,3,2,0,115,6",0.5,1.0,1.0
TiO 1,4875.0932,-0.9159999999999999,0.7162011762628783,50.0,3.2587080301093145,49.0,99.0,99.0,99.0,7.395,0.0,0.0,0.001,_                             4 wl:PPN2012   4 gf:PPN2012   4 PPN2012   4 PPN2012   4 PPN2012   4 PPN2012   4 PPN2012   4 PPN2012   4 PPN2012    (50)TiO,"8s2.9s1.3p4.1d1 a,1,2,0,50,1","8s2.11s1.3p4.1d1 f,1,2,0,49,3",0.5,1.0,1.0
TiO 1,4875.0992,-0.285,0.6838464212705305,12.0,3.226350138316771,11.0,99.0,99.0,99.0,7.398,0.0,0.0,0.005,_                             6 wl:PPN2012   6 gf:PPN2012   6 PPN2012   6 PPN2012   6 PPN2012   6 PPN2012   6 PPN2012   6 PPN2012   6 PPN2012    (48)TiO,"8s2.9s1.3p4.1d1 a,1,2,0,12,2","8s2.11s1.3p4.1d1 f,1,2,0,11,4",0.5,1.0,1.0
TiO 1,4875.1004,-0.9309999999999999,0.3540585483136661,35.0,2.8965581242877105,34.0,99.0,99.0,99.0,7.319,0.0,0.0,0.004,_          -0.00668299        2 wl:PPN2012   2 gf:PPN2012   2 PPN2012   2 PPN2012   2 PPN2012   2 PPN2012   2 PPN2012   2 PPN2012   2 PPN2012    (47)TiO,"8s2.9s1.3p4.1d1 X,3,2,0,36,2","8s2.11s1.3p4.1d1 C,3,2,0,35,4",0.5,1.0,1.0
Mo 1,4875.114,-1.774,2.917894564830345,2.0,5.460391264371008,1.0,0.67,99.0,99.0,0.0,0.0,0.0,0.001,_          Cu 1 - Ba 2 Bell  17 wl:WBb  17 gf:WBb  17 WBb  17 WBb  17 WBb  17 WBb  17 WBb  17 WBb  17 WBb    Mo,4d4.5s2 a3F,4d5.(4D).5p y3D*,0.5,1.0,1.0
TiO 1,4875.1302,-0.758,0.7720035127202828,38.0,3.3144911242192716,39.0,99.0,99.0,99.0,7.391,0.0,0.0,0.001,_                             2 wl:PPN2012   2 gf:PPN2012   2 PPN2012   2 PPN2012   2 PPN2012   2 PPN2012   2 PPN2012   2 PPN2012   2 PPN2012    (47)TiO,"8s2.9s1.3p4.1d1 a,1,2,0,38,2","8s2.11s1.3p4.1d1 f,1,2,0,39,4",0.5,1.0,1.0
TiO 1,4875.1332,-0.003,1.2655717952812606,68.0,3.808057708196744,68.0,99.0,99.0,99.0,7.56,0.0,0.0,0.001,_                             6 wl:PPN2012   6 gf:PPN2012   6 PPN2012   6 PPN2012   6 PPN2012   6 PPN2012   6 PPN2012   6 PPN2012   6 PPN2012    (48)TiO,"8s2.9s1.3p4.1d1 X,3,2,-,68,8","8s2.3p4.4p1.1d1 B,3,1,+,68,11",0.5,1.0,1.0
TiO 1,4875.1423,-1.081,0.34734005542589563,34.0,2.8898164835502724,33.0,99.0,99.0,99.0,7.319,0.0,0.0,0.003,_          -0.00920971        8 wl:PPN2012   8 gf:PPN2012   8 PPN2012   8 PPN2012   8 PPN2012   8 PPN2012   8 PPN2012   8 PPN2012   8 PPN2012    (49)TiO,"8s2.9s1.3p4.1d1 X,3,2,0,35,2","8s2.11s1.3p4.1d1 C,3,2,0,34,4",0.5,1.0,1.0
MgH 1,4875.1573,-1.8359999999999999,1.0401381481521892,25.5,3.582611538663728,26.5,99.0,99.0,99.0,7.06,0.0,0.0,0.001,_                            18 wl:KMGH  18 gf:KMGH  18 KMGH  18 KMGH  18 KMGH  18 KMGH  18 KMGH  18 KMGH  18 KMGH    (24)MgH,"4s2.5s1 X,2,0,e,25,4","4s1.5s2/4s2.7s1/4s2.6s1 B,2,0,e,26,7",0.5,1.0,1.0
MgH 1,4875.1573,-1.8530000000000002,1.0401381481521892,24.5,3.582611538663728,25.5,99.0,99.0,99.0,7.06,0.0,0.0,0.001,_                            18 wl:KMGH  18 gf:KMGH  18 KMGH  18 KMGH  18 KMGH  18 KMGH  18 KMGH  18 KMGH  18 KMGH    (24)MgH,"4s2.5s1 X,2,0,f,25,4","4s1.5s2/4s2.7s1/4s2.6s1 B,2,0,f,26,7",0.5,1.0,1.0
TiO 1,4875.162,-0.405,0.7506071630134309,104.0,3.2932056411817974,105.0,99.0,99.0,99.0,7.2589999999999995,0.0,0.0,0.003,_          0.244504           3 wl:PPN2012   3 gf:PPN2012   3 PPN2012   3 PPN2012   3 PPN2012   3 PPN2012   3 PPN2012   3 PPN2012   3 PPN2012    (46)TiO,"8s2.9s1.3p4.1d1 X,3,2,0,105,0","8s2.11s1.3p4.1d1 C,3,2,0,106,2",0.5,1.0,1.0
CH 1,4875.178,-2.8710000000000004,0.45804337562351655,8.5,3.0005057315414807,8.5,99.0,99.0,99.0,6.27,0.0,0.0,0.012,_                            37 wl:JLIY  37 gf:JLIY  37 JLIY  37 JLIY  37 JLIY  37 JLIY  37 JLIY  37 JLIY  37 JLIY    (12)CH,"1s2.2s2.3s2.1p1 X,2,1,f,8,1","1s2.2s2.3s1.1p2 A,2,2,e,8,0",0.5,1.0,1.0
TiO 1,4875.1795,0.21100000000000002,0.9848767919436061,85.0,3.5273386395263606,84.0,99.0,99.0,99.0,7.272,0.0,0.0,0.005,_                             6 wl:PPN2012   6 gf:PPN2012   6 PPN2012   6 PPN2012   6 PPN2012   6 PPN2012   6 PPN2012   6 PPN2012   6 PPN2012    (48)TiO,"8s2.9s1.3p4.1d1 X,3,2,0,86,4","8s2.11s1.3p4.1d1 C,3,2,0,85,7",0.5,1.0,1.0
TiO 1,4875.1798,-0.603,0.5803968089443192,84.0,3.12287205921882,85.0,99.0,99.0,99.0,7.2829999999999995,0.0,0.0,0.004,_          0.0261448          4 wl:PPN2012   4 gf:PPN2012   4 PPN2012   4 PPN2012   4 PPN2012   4 PPN2012   4 PPN2012   4 PPN2012   4 PPN2012    (50)TiO,"8s2.9s1.3p4.1d1 X,3,2,0,83,1","8s2.11s1.3p4.1d1 C,3,2,0,84,3",0.5,1.0,1.0
TiO 1,4875.1799,-1.052,0.6581735838276997,51.0,3.200635195840479,52.0,99.0,99.0,99.0,7.327999999999999,0.0,0.0,0.001,_                             6 wl:PPN2012   6 gf:PPN2012   6 PPN2012   6 PPN2012   6 PPN2012   6 PPN2012   6 PPN2012   6 PPN2012   6 PPN2012    (48)TiO,"8s2.9s1.3p4.1d1 X,3,2,+,50,4","8s2.3p4.4p1.1d1 B,3,1,-,51,8",0.5,1.0,1.0
TiO 1,4875.1912,-0.593,0.8031228147785197,51.0,3.3455785499403388,51.0,99.0,99.0,99.0,7.394,0.0,0.0,0.002,_                             6 wl:PPN2012   6 gf:PPN2012   6 PPN2012   6 PPN2012   6 PPN2012   6 PPN2012   6 PPN2012   6 PPN2012   6 PPN2012    (48)TiO,"8s2.9s1.3p4.1d1 X,3,2,-,52,5","8s2.3p4.4p1.1d1 B,3,1,+,52,9",0.5,1.0,1.0
Mn 1,4875.2081,-4.471,3.378302895130198,1.5,5.920749808940352,2.5,1.73,1.82,1.89,6.8,-5.61,-7.73,0.006999999999999999,"_          Kurucz MnI 2007   39 wl:K07  39 gf:K07  39 K07  39 K07  39 K07  39 K07  39 K07  39 K07  39 K07   hfs:BPPN,BPPN Mn",3d5.4s2 a4P,3d5.(4P).4s.4p.(3P*) y6D*,0.5,1.0,1.0
TiO 1,4875.2166,0.46399999999999997,0.513634244633716,87.0,3.0560972700663465,86.0,99.0,99.0,99.0,7.2829999999999995,0.0,0.0,0.052000000000000005,_          0.0392700          6 wl:PPN2012   6 gf:PPN2012   6 PPN2012   6 PPN2012   6 PPN2012   6 PPN2012   6 PPN2012   6 PPN2012   6 PPN2012    (48)TiO,"8s2.9s1.3p4.1d1 X,3,2,0,87,0","8s2.11s1.3p4.1d1 C,3,2,0,86,2",0.5,1.0,1.0
Mn 1,4875.2272,-4.683,3.378298974501906,1.5,5.920735913039468,2.5,1.73,1.82,1.89,6.8,-5.61,-7.73,0.006999999999999999,"_          Kurucz MnI 2007   39 wl:K07  39 gf:K07  39 K07  39 K07  39 K07  39 K07  39 K07  39 K07  39 K07   hfs:BPPN,BPPN Mn",3d5.4s2 a4P,3d5.(4P).4s.4p.(3P*) y6D*,0.5,1.0,1.0
Mn 1,4875.2347,-5.16,3.378302895130198,1.5,5.920735913039468,2.5,1.73,1.82,1.89,6.8,-5.61,-7.73,0.006999999999999999,"_          Kurucz MnI 2007   39 wl:K07  39 gf:K07  39 K07  39 K07  39 K07  39 K07  39 K07  39 K07  39 K07   hfs:BPPN,BPPN Mn",3d5.4s2 a4P,3d5.(4P).4s.4p.(3P*) y6D*,0.5,1.0,1.0
Mn 1,4875.2429,-4.956,3.3782960339686947,1.5,5.920724796368354,2.5,1.73,1.82,1.89,6.8,-5.61,-7.73,0.006999999999999999,"_          Kurucz MnI 2007   39 wl:K07  39 gf:K07  39 K07  39 K07  39 K07  39 K07  39 K07  39 K07  39 K07   hfs:BPPN,BPPN Mn",3d5.4s2 a4P,3d5.(4P).4s.4p.(3P*) y6D*,0.5,1.0,1.0
TiO 1,4875.2464,0.488,1.4013395748631463,126.0,3.9300469999295773,127.0,99.0,99.0,99.0,7.216,0.0,0.0,0.002,_          -26.4510           6 wl:PPN2012   6 gf:PPN2012   6 PPN2012   6 PPN2012   6 PPN2012   6 PPN2012   6 PPN2012   6 PPN2012   6 PPN2012    (48)TiO,"8s2.9s1.3p4.1d1 X,3,2,0,126,3","8s2.11s1.3p4.1d1 C,3,2,0,127,6",0.5,1.0,1.0
Mn 1,4875.2485,-5.013999999999999,3.378298974501906,1.5,5.920724796368354,2.5,1.73,1.82,1.89,6.8,-5.61,-7.73,0.006999999999999999,"_          Kurucz MnI 2007   39 wl:K07  39 gf:K07  39 K07  39 K07  39 K07  39 K07  39 K07  39 K07  39 K07   hfs:BPPN,BPPN Mn",3d5.4s2 a4P,3d5.(4P).4s.4p.(3P*) y6D*,0.5,1.0,1.0
Mn 1,4875.2551,-5.3660000000000005,3.378294073654548,1.5,5.920716458927011,2.5,1.73,1.82,1.89,6.8,-5.61,-7.73,0.006999999999999999,"_          Kurucz MnI 2007   39 wl:K07  39 gf:K07  39 K07  39 K07  39 K07  39 K07  39 K07  39 K07  39 K07   hfs:BPPN,BPPN Mn",3d5.4s2 a4P,3d5.(4P).4s.4p.(3P*) y6D*,0.5,1.0,1.0
Mn 1,4875.256,-6.114,3.378302895130198,1.5,5.920724796368354,2.5,1.73,1.82,1.89,6.8,-5.61,-7.73,0.006999999999999999,"_          Kurucz MnI 2007   39 wl:K07  39 gf:K07  39 K07  39 K07  39 K07  39 K07  39 K07  39 K07  39 K07   hfs:BPPN,BPPN Mn",3d5.4s2 a4P,3d5.(4P).4s.4p.(3P*) y6D*,0.5,1.0,1.0
Mn 1,4875.2589,-5.035,3.3782960339686947,1.5,5.920716458927011,2.5,1.73,1.82,1.89,6.8,-5.61,-7.73,0.006999999999999999,"_          Kurucz MnI 2007   39 wl:K07  39 gf:K07  39 K07  39 K07  39 K07  39 K07  39 K07  39 K07  39 K07   hfs:BPPN,BPPN Mn",3d5.4s2 a4P,3d5.(4P).4s.4p.(3P*) y6D*,0.5,1.0,1.0
Sc 1,4875.2621,-1.72,1.9849584851313191,0.5,4.527377198611774,1.5,0.0,1.71,2.14,7.53,-5.73,-7.82,0.055999999999999994,_          Kurucz ScI 2009   23 wl:K09  23 gf:K09  23 K09  23 K09  23 K09  23 K09  23 K09  23 K09  23 K09    Sc,3d.4s.(3D).4p 4D*,3d3 4P,0.5,1.0,1.0