species,wlcent,gflog,excit,j_lo,e_upp,j_up,lande_lower,lande_upper,lande,gamrad,gamqst,gamvw,depth,reference,term_lower,term_upper,error,atom_number,ionization
TiO 1,4801.833,0.498,1.4444190001319193,90.0,4.025715686381477,91.0,99.0,99.0,99.0,7.343,0.0,0.0,0.002,_                             6 wl:PPN2012   6 gf:PPN2012   6 PPN2012   6 PPN2012   6 PPN2012   6 PPN2012   6 PPN2012   6 PPN2012   6 PPN2012    (48)TiO,"8s2.9s1.3p4.1d1 a,1,2,0,90,4","8s2.11s1.3p4.1d1 f,1,2,0,91,7",0.5,1.0,1.0
V 2,4801.8369,-6.039,2.049809093596167,5.0,4.631103547882201,5.0,1.16,1.4,1.28,8.39,-6.49,-7.87,0.001,"_          Kurucz V II 2010  16 wl:K10  16 gf:K10  16 K10  16 K10  16 K10  16 K10  16 K10  16 K10  16 K10   hfs:ARH,ARH V+",3d3.(2G).4s b3G,3d3.(4F).4p z5F*,0.5,1.0,2.0
V 2,4801.8376,-6.015,2.0498204304632153,5.0,4.631114535733733,5.0,1.16,1.4,1.28,8.39,-6.49,-7.87,0.001,"_          Kurucz V II 2010  16 wl:K10  16 gf:K10  16 K10  16 K10  16 K10  16 K10  16 K10  16 K10  16 K10   hfs:ARH,ARH V+",3d3.(2G).4s b3G,3d3.(4F).4p z5F*,0.5,1.0,2.0
V 2,4801.8456,-5.562,2.0498204304632153,5.0,4.631110207197431,5.0,1.16,1.4,1.28,8.39,-6.49,-7.87,0.001,"_          Kurucz V II 2010  16 wl:K10  16 gf:K10  16 K10  16 K10  16 K10  16 K10  16 K10  16 K10  16 K10   hfs:ARH,ARH V+",3d3.(2G).4s b3G,3d3.(4F).4p z5F*,0.5,1.0,2.0
V 2,4801.8524,-6.001,2.0498204304632153,5.0,4.631106544580255,5.0,1.16,1.4,1.28,8.39,-6.49,-7.87,0.001,"_          Kurucz V II 2010  16 wl:K10  16 gf:K10  16 K10  16 K10  16 K10  16 K10  16 K10  16 K10  16 K10   hfs:ARH,ARH V+",3d3.(2G).4s b3G,3d3.(4F).4p z5F*,0.5,1.0,2.0
V 2,4801.8532,-6.097,2.04983382869153,5.0,4.631119530065176,5.0,1.16,1.4,1.28,8.39,-6.49,-7.87,0.001,"_          Kurucz V II 2010  16 wl:K10  16 gf:K10  16 K10  16 K10  16 K10  16 K10  16 K10  16 K10  16 K10   hfs:ARH,ARH V+",3d3.(2G).4s b3G,3d3.(4F).4p z5F*,0.5,1.0,2.0
TiO 1,4801.8544,-0.804,0.2853131295297626,66.0,2.8665903998539966,67.0,99.0,99.0,99.0,7.3020000000000005,0.0,0.0,0.006999999999999999,_          -0.0145307         4 wl:PPN2012   4 gf:PPN2012   4 PPN2012   4 PPN2012   4 PPN2012   4 PPN2012   4 PPN2012   4 PPN2012   4 PPN2012    (50)TiO,"8s2.9s1.3p4.1d1 X,3,2,0,65,0","8s2.11s1.3p4.1d1 C,3,2,0,66,2",0.5,1.0,1.0
V 2,4801.8625,-5.428999999999999,2.04983382869153,5.0,4.631114535733733,5.0,1.16,1.4,1.28,8.39,-6.49,-7.87,0.001,"_          Kurucz V II 2010  16 wl:K10  16 gf:K10  16 K10  16 K10  16 K10  16 K10  16 K10  16 K10  16 K10   hfs:ARH,ARH V+",3d3.(2G).4s b3G,3d3.(4F).4p z5F*,0.5,1.0,2.0
Ce 2,4801.8646,-1.79,1.5200571715931375,3.5,4.101336748023444,3.5,1.17,1.26,1.21,0.0,0.0,0.0,0.009000000000000001,C-0.012    Ce 2: DREAM data  15 wl:PQWB  15 gf:PQWB  15 PQWB  15 PQWB  15 PQWB  15 PQWB  15 PQWB  15 PQWB  15 PQWB    Ce+,4f.(2F*).6s2 *,5d3 5d3,0.012,1.0,2.0
TiO 1,4801.8659,-0.589,0.3089554033801068,68.0,2.8902257553861213,69.0,99.0,99.0,99.0,7.3,0.0,0.0,0.01,_          -0.0160172         3 wl:PPN2012   3 gf:PPN2012   3 PPN2012   3 PPN2012   3 PPN2012   3 PPN2012   3 PPN2012   3 PPN2012   3 PPN2012    (46)TiO,"8s2.9s1.3p4.1d1 X,3,2,0,67,0","8s2.11s1.3p4.1d1 C,3,2,0,68,2",0.5,1.0,1.0
V 2,4801.8706,-6.015,2.04983382869153,5.0,4.631110207197431,5.0,1.16,1.4,1.28,8.39,-6.49,-7.87,0.001,"_          Kurucz V II 2010  16 wl:K10  16 gf:K10  16 K10  16 K10  16 K10  16 K10  16 K10  16 K10  16 K10   hfs:ARH,ARH V+",3d3.(2G).4s b3G,3d3.(4F).4p z5F*,0.5,1.0,2.0
TiO 1,4801.8706,0.361,0.7535282059089876,74.0,3.3347808901668627,73.0,99.0,99.0,99.0,7.2860000000000005,0.0,0.0,0.017,_          -0.0440553         6 wl:PPN2012   6 gf:PPN2012   6 PPN2012   6 PPN2012   6 PPN2012   6 PPN2012   6 PPN2012   6 PPN2012   6 PPN2012    (48)TiO,"8s2.9s1.3p4.1d1 X,3,2,0,75,3","8s2.11s1.3p4.1d1 C,3,2,0,74,6",0.5,1.0,1.0
V 2,4801.8714,-6.315,2.049849288157129,5.0,4.631125190439727,5.0,1.16,1.4,1.28,8.39,-6.49,-7.87,0.001,"_          Kurucz V II 2010  16 wl:K10  16 gf:K10  16 K10  16 K10  16 K10  16 K10  16 K10  16 K10  16 K10   hfs:ARH,ARH V+",3d3.(2G).4s b3G,3d3.(4F).4p z5F*,0.5,1.0,2.0
TiO 1,4801.8809,0.225,1.176682242388114,46.0,3.757953090330919,45.0,99.0,99.0,99.0,7.362,0.0,0.0,0.002,_                             6 wl:PPN2012   6 gf:PPN2012   6 PPN2012   6 PPN2012   6 PPN2012   6 PPN2012   6 PPN2012   6 PPN2012   6 PPN2012    (48)TiO,"8s2.9s1.3p4.1d1 a,1,2,0,46,5","8s2.11s1.3p4.1d1 f,1,2,0,45,8",0.5,1.0,1.0
V 2,4801.882,-5.3020000000000005,2.049849288157129,5.0,4.631119530065176,5.0,1.16,1.4,1.28,8.39,-6.49,-7.87,0.001,"_          Kurucz V II 2010  16 wl:K10  16 gf:K10  16 K10  16 K10  16 K10  16 K10  16 K10  16 K10  16 K10   hfs:ARH,ARH V+",3d3.(2G).4s b3G,3d3.(4F).4p z5F*,0.5,1.0,2.0
TiO 1,4801.8844,0.35600000000000004,0.2968549672532938,67.0,2.8781157228824243,68.0,99.0,99.0,99.0,7.301,0.0,0.0,0.091,_          -0.0152830         6 wl:PPN2012   6 gf:PPN2012   6 PPN2012   6 PPN2012   6 PPN2012   6 PPN2012   6 PPN2012   6 PPN2012   6 PPN2012    (48)TiO,"8s2.9s1.3p4.1d1 X,3,2,0,66,0","8s2.11s1.3p4.1d1 C,3,2,0,67,2",0.5,1.0,1.0
TiO 1,4801.8877,-0.022000000000000002,1.201671071411922,26.0,3.7829382618209015,27.0,99.0,99.0,99.0,7.362,0.0,0.0,0.001,_                             6 wl:PPN2012   6 gf:PPN2012   6 PPN2012   6 PPN2012   6 PPN2012   6 PPN2012   6 PPN2012   6 PPN2012   6 PPN2012    (48)TiO,"8s2.9s1.3p4.1d1 a,1,2,0,26,6","8s2.11s1.3p4.1d1 f,1,2,0,27,9",0.5,1.0,1.0
V 2,4801.8913,-6.097,2.049849288157129,5.0,4.631114535733733,5.0,1.16,1.4,1.28,8.39,-6.49,-7.87,0.001,"_          Kurucz V II 2010  16 wl:K10  16 gf:K10  16 K10  16 K10  16 K10  16 K10  16 K10  16 K10  16 K10   hfs:ARH,ARH V+",3d3.(2G).4s b3G,3d3.(4F).4p z5F*,0.5,1.0,2.0
Ti 1,4801.9015,-3.06,0.8181425828189642,2.0,3.3994023217776754,2.0,0.99,1.17,1.08,7.02,-6.09,-7.78,0.875,E0.03      Kurucz TiI 2016   22 wl:K16  24 gf:LGWSC  22 K16  22 K16  22 K16  22 K16  22 K16  22 K16  22 K16    Ti,3d3.(4F).4s a5F,3d2.(1D).4s.4p.(3P*) x3D*,1.0715193052376064,1.0,1.0
V 2,4801.904,-5.182,2.0498668087360254,5.0,4.631125190439727,5.0,1.16,1.4,1.28,8.39,-6.49,-7.87,0.001,"_          Kurucz V II 2010  16 wl:K10  16 gf:K10  16 K10  16 K10  16 K10  16 K10  16 K10  16 K10  16 K10   hfs:ARH,ARH V+",3d3.(2G).4s b3G,3d3.(4F).4p z5F*,0.5,1.0,2.0
TiO 1,4801.9067,-0.489,0.8400580047669445,94.0,3.4210820745631043,93.0,99.0,99.0,99.0,7.269,0.0,0.0,0.002,_          -0.433385          2 wl:PPN2012   2 gf:PPN2012   2 PPN2012   2 PPN2012   2 PPN2012   2 PPN2012   2 PPN2012   2 PPN2012   2 PPN2012    (47)TiO,"8s2.9s1.3p4.1d1 X,3,2,0,94,2","8s2.11s1.3p4.1d1 C,3,2,0,93,5",0.5,1.0,1.0
V 2,4801.9146,-6.315,2.0498668087360254,5.0,4.631119530065176,5.0,1.16,1.4,1.28,8.39,-6.49,-7.87,0.001,"_          Kurucz V II 2010  16 wl:K10  16 gf:K10  16 K10  16 K10  16 K10  16 K10  16 K10  16 K10  16 K10   hfs:ARH,ARH V+",3d3.(2G).4s b3G,3d3.(4F).4p z5F*,0.5,1.0,2.0
TiO 1,4801.9168,-0.769,0.7304477292542202,75.0,3.3119968101345676,74.0,99.0,99.0,99.0,7.2860000000000005,0.0,0.0,0.001,_          0.553517           8 wl:PPN2012   8 gf:PPN2012   8 PPN2012   8 PPN2012   8 PPN2012   8 PPN2012   8 PPN2012   8 PPN2012   8 PPN2012    (49)TiO,"8s2.9s1.3p4.1d1 X,3,2,0,74,3","8s2.11s1.3p4.1d1 C,3,2,0,73,6",0.5,1.0,1.0
MgH 1,4801.923,-1.548,0.02980480919823883,6.5,2.611053017626585,6.5,99.0,99.0,99.0,7.39,0.0,0.0,0.078,_                            18 wl:KMGH  18 gf:KMGH  18 KMGH  18 KMGH  18 KMGH  18 KMGH  18 KMGH  18 KMGH  18 KMGH    (24)MgH,"4s2.5s1 X,2,0,e,6,0","4s2.2p1 A,2,1,f,6,1",0.5,1.0,1.0
TiO 1,4801.9392,0.534,0.9069398418755139,101.0,3.478400464990334,100.0,99.0,99.0,99.0,7.26,0.0,0.0,0.013999999999999999,_          -18.2614           6 wl:PPN2012   6 gf:PPN2012   6 PPN2012   6 PPN2012   6 PPN2012   6 PPN2012   6 PPN2012   6 PPN2012   6 PPN2012    (48)TiO,"8s2.9s1.3p4.1d1 X,3,2,0,100,2","8s2.11s1.3p4.1d1 C,3,2,0,99,5",0.5,1.0,1.0
Ti 1,4801.9486,-3.16,0.8258594832537025,3.0,3.4070939294361295,3.0,1.25,1.36,1.31,6.97,-6.09,-7.78,0.86,E0.04      Kurucz TiI 2016   22 wl:K16  24 gf:LGWSC  22 K16  22 K16  22 K16  22 K16  22 K16  22 K16  22 K16    Ti,3d3.(4F).4s a5F,3d2.(1D).4s.4p.(3P*) x3D*,1.096478196143185,1.0,1.0
TiO 1,4801.9543,-0.39299999999999996,0.991223047075312,48.0,3.5724545052385803,48.0,99.0,99.0,99.0,7.502000000000001,0.0,0.0,0.001,_                             6 wl:PPN2012   6 gf:PPN2012   6 PPN2012   6 PPN2012   6 PPN2012   6 PPN2012   6 PPN2012   6 PPN2012   6 PPN2012    (48)TiO,"8s2.9s1.3p4.1d1 X,3,2,+,47,7","8s2.3p4.4p1.1d1 B,3,1,-,47,11",0.5,1.0,1.0
TiO 1,4801.9609,-0.887,0.6625494201011116,51.0,3.2437772331289745,50.0,99.0,99.0,99.0,7.3,0.0,0.0,0.001,_                             3 wl:PPN2012   3 gf:PPN2012   3 PPN2012   3 PPN2012   3 PPN2012   3 PPN2012   3 PPN2012   3 PPN2012   3 PPN2012    (46)TiO,"8s2.9s1.3p4.1d1 X,3,2,0,50,4","8s2.11s1.3p4.1d1 C,3,2,0,49,7",0.5,1.0,1.0
TiO 1,4801.9729,0.564,1.0498177184328794,109.0,3.6306130125878675,110.0,99.0,99.0,99.0,7.245,0.0,0.0,0.009000000000000001,_          -0.792923          6 wl:PPN2012   6 gf:PPN2012   6 PPN2012   6 PPN2012   6 PPN2012   6 PPN2012   6 PPN2012   6 PPN2012   6 PPN2012    (48)TiO,"8s2.9s1.3p4.1d1 X,3,2,0,110,2","8s2.11s1.3p4.1d1 C,3,2,0,111,5",0.5,1.0,1.0
MgH 1,4801.9857,-1.817,0.014199042246871383,3.5,2.595413526973506,3.5,99.0,99.0,99.0,7.39,0.0,0.0,0.045,_                            18 wl:KMGH  18 gf:KMGH  18 KMGH  18 KMGH  18 KMGH  18 KMGH  18 KMGH  18 KMGH  18 KMGH    (24)MgH,"4s2.5s1 X,2,0,f,4,0","4s2.2p1 A,2,1,e,4,1",0.5,1.0,1.0
TiO 1,4802.0078,-1.386,0.4572656599480457,21.0,3.0384683289806618,22.0,99.0,99.0,99.0,7.41,0.0,0.0,0.001,_                             3 wl:PPN2012   3 gf:PPN2012   3 PPN2012   3 PPN2012   3 PPN2012   3 PPN2012   3 PPN2012   3 PPN2012   3 PPN2012    (46)TiO,"8s2.9s1.3p4.1d1 a,1,2,0,21,0","8s2.11s1.3p4.1d1 f,1,2,0,22,2",0.5,1.0,1.0
TiO 1,4802.0608,-0.49700000000000005,0.9360780004423757,109.0,3.517032949048446,108.0,99.0,99.0,99.0,7.251,0.0,0.0,0.001,_          -0.407909          2 wl:PPN2012   2 gf:PPN2012   2 PPN2012   2 PPN2012   2 PPN2012   2 PPN2012   2 PPN2012   2 PPN2012   2 PPN2012    (47)TiO,"8s2.9s1.3p4.1d1 X,3,2,0,110,1","8s2.11s1.3p4.1d1 C,3,2,0,109,4",0.5,1.0,1.0
TiO 1,4802.0907,0.049,0.6716343497723155,49.0,3.2527923720954224,48.0,99.0,99.0,99.0,7.301,0.0,0.0,0.011000000000000001,_                             6 wl:PPN2012   6 gf:PPN2012   6 PPN2012   6 PPN2012   6 PPN2012   6 PPN2012   6 PPN2012   6 PPN2012   6 PPN2012    (48)TiO,"8s2.9s1.3p4.1d1 X,3,2,0,50,4","8s2.11s1.3p4.1d1 C,3,2,0,49,7",0.5,1.0,1.0
TiO 1,4802.0907,-0.7829999999999999,0.7777648476035839,78.0,3.3589229691140488,78.0,99.0,99.0,99.0,7.309,0.0,0.0,0.001,_                             6 wl:PPN2012   6 gf:PPN2012   6 PPN2012   6 PPN2012   6 PPN2012   6 PPN2012   6 PPN2012   6 PPN2012   6 PPN2012    (48)TiO,"8s2.9s1.3p4.1d1 X,3,2,+,78,3","8s2.3p4.4p1.1d1 B,3,1,-,78,7",0.5,1.0,1.0
TiO 1,4802.092,0.503,0.8409646144141052,93.0,3.42199187060414,92.0,99.0,99.0,99.0,7.269,0.0,0.0,0.017,_          -0.241964          6 wl:PPN2012   6 gf:PPN2012   6 PPN2012   6 PPN2012   6 PPN2012   6 PPN2012   6 PPN2012   6 PPN2012   6 PPN2012    (48)TiO,"8s2.9s1.3p4.1d1 X,3,2,0,94,2","8s2.11s1.3p4.1d1 C,3,2,0,93,5",0.5,1.0,1.0
TiO 1,4802.1035,0.5670000000000001,1.045795894238504,110.0,3.6262863360487527,111.0,99.0,99.0,99.0,7.244,0.0,0.0,0.009000000000000001,_          -1.22965           6 wl:PPN2012   6 gf:PPN2012   6 PPN2012   6 PPN2012   6 PPN2012   6 PPN2012   6 PPN2012   6 PPN2012   6 PPN2012    (48)TiO,"8s2.9s1.3p4.1d1 X,3,2,0,110,2","8s2.11s1.3p4.1d1 C,3,2,0,111,5",0.5,1.0,1.0
TiO 1,4802.1038,0.057,0.6647437544200367,50.0,3.2458947592375664,49.0,99.0,99.0,99.0,7.301,0.0,0.0,0.012,_                             6 wl:PPN2012   6 gf:PPN2012   6 PPN2012   6 PPN2012   6 PPN2012   6 PPN2012   6 PPN2012   6 PPN2012   6 PPN2012    (48)TiO,"8s2.9s1.3p4.1d1 X,3,2,0,50,4","8s2.11s1.3p4.1d1 C,3,2,0,49,7",0.5,1.0,1.0
TiO 1,4802.1047,-0.731,0.16815212960216944,50.0,2.749314491372188,49.0,99.0,99.0,99.0,7.315,0.0,0.0,0.013000000000000001,_          0.0219214          3 wl:PPN2012   3 gf:PPN2012   3 PPN2012   3 PPN2012   3 PPN2012   3 PPN2012   3 PPN2012   3 PPN2012   3 PPN2012    (46)TiO,"8s2.9s1.3p4.1d1 X,3,2,0,49,0","8s2.11s1.3p4.1d1 C,3,2,0,48,2",0.5,1.0,1.0
O 1,4802.134,-2.122,10.740475533950345,2.0,13.3216105448064,2.0,99.0,99.0,99.0,0.0,0.0,0.0,0.004,"_          CNO, Na 1, Mg 1:  58 wl:NIST10  58 gf:NIST10  58 NIST10  58 NIST10  74 KP  74 KP  74 KP  74 KP  58 NIST10    O",2s2.2p3.(4S*).3p 5P,2s2.2p3.(4S*).8s 5S*,0.5,1.0,1.0
MgH 1,4802.1347,-2.226,0.004260840930258393,1.5,2.585395231865327,1.5,99.0,99.0,99.0,7.39,0.0,0.0,0.019,_                            18 wl:KMGH  18 gf:KMGH  18 KMGH  18 KMGH  18 KMGH  18 KMGH  18 KMGH  18 KMGH  18 KMGH    (24)MgH,"4s2.5s1 X,2,0,f,2,0","4s2.2p1 A,2,1,e,2,1",0.5,1.0,1.0
Ti 1,4802.1372,-3.845,2.249230182117908,5.0,4.830363209226805,4.0,1.02,1.02,1.02,8.27,-6.04,-7.68,0.011000000000000001,_          Kurucz TiI 2016   22 wl:K16  22 gf:K16  22 K16  22 K16  22 K16  22 K16  22 K16  22 K16  22 K16    Ti,3d3.(2H).4s a3H,3d3.(2G).4p x1G*,0.5,1.0,1.0
TiO 1,4802.1575,-0.95,0.15195163525237726,48.0,2.7330881835124825,47.0,99.0,99.0,99.0,7.316,0.0,0.0,0.008,_          0.0268354          4 wl:PPN2012   4 gf:PPN2012   4 PPN2012   4 PPN2012   4 PPN2012   4 PPN2012   4 PPN2012   4 PPN2012   4 PPN2012    (50)TiO,"8s2.9s1.3p4.1d1 X,3,2,0,47,0","8s2.11s1.3p4.1d1 C,3,2,0,46,2",0.5,1.0,1.0
TiO 1,4802.1577,0.212,0.15985318535240772,49.0,2.7409883325910815,48.0,99.0,99.0,99.0,7.316,0.0,0.0,0.109,_          0.0243152          6 wl:PPN2012   6 gf:PPN2012   6 PPN2012   6 PPN2012   6 PPN2012   6 PPN2012   6 PPN2012   6 PPN2012   6 PPN2012    (48)TiO,"8s2.9s1.3p4.1d1 X,3,2,0,48,0","8s2.11s1.3p4.1d1 C,3,2,0,47,2",0.5,1.0,1.0
MgH 1,4802.1596,-1.969,0.008521929828911725,2.5,2.589642930470654,2.5,99.0,99.0,99.0,7.39,0.0,0.0,0.033,_                            18 wl:KMGH  18 gf:KMGH  18 KMGH  18 KMGH  18 KMGH  18 KMGH  18 KMGH  18 KMGH  18 KMGH    (24)MgH,"4s2.5s1 X,2,0,f,3,0","4s2.2p1 A,2,1,e,3,1",0.5,1.0,1.0
V 1,4802.1719,-3.597,1.711180103908676,1.5,4.292294508219161,2.5,1.2,1.28,1.34,8.39,-6.15,-7.65,0.042,"_          Kurucz V I 2009   19 wl:K09  19 gf:K09  19 K09  19 K09  19 K09  19 K09  19 K09  19 K09  19 K09   hfs:LGB,PBAG V",3d3.4s2 a2P,3d3.(4F).4s.4p.(1P*) v4D*,0.5,1.0,1.0
TiO 1,4802.1719,-0.895,0.6824922162720829,50.0,3.263606645751359,49.0,99.0,99.0,99.0,7.3,0.0,0.0,0.001,_                             3 wl:PPN2012   3 gf:PPN2012   3 PPN2012   3 PPN2012   3 PPN2012   3 PPN2012   3 PPN2012   3 PPN2012   3 PPN2012    (46)TiO,"8s2.9s1.3p4.1d1 X,3,2,0,51,4","8s2.11s1.3p4.1d1 C,3,2,0,50,7",0.5,1.0,1.0
V 1,4802.1733,-3.813,1.7111732056758973,1.5,4.2922868381847525,2.5,1.2,1.28,1.34,8.39,-6.15,-7.65,0.042,"_          Kurucz V I 2009   19 wl:K09  19 gf:K09  19 K09  19 K09  19 K09  19 K09  19 K09  19 K09  19 K09   hfs:LGB,PBAG V",3d3.4s2 a2P,3d3.(4F).4s.4p.(1P*) v4D*,0.5,1.0,1.0
V 1,4802.175,-4.096,1.7111676870152839,1.5,4.292280446427419,2.5,1.2,1.28,1.34,8.39,-6.15,-7.65,0.042,"_          Kurucz V I 2009   19 wl:K09  19 gf:K09  19 K09  19 K09  19 K09  19 K09  19 K09  19 K09  19 K09   hfs:LGB,PBAG V",3d3.4s2 a2P,3d3.(4F).4s.4p.(1P*) v4D*,0.5,1.0,1.0
V 1,4802.1768,-4.535,1.7111635480508196,1.5,4.292275333195133,2.5,1.2,1.28,1.34,8.39,-6.15,-7.65,0.042,"_          Kurucz V I 2009   19 wl:K09  19 gf:K09  19 K09  19 K09  19 K09  19 K09  19 K09  19 K09  19 K09   hfs:LGB,PBAG V",3d3.4s2 a2P,3d3.(4F).4s.4p.(1P*) v4D*,0.5,1.0,1.0
V 1,4802.1839,-4.234,1.7111635480508196,1.5,4.292271498115936,2.5,1.2,1.28,1.34,8.39,-6.15,-7.65,0.042,"_          Kurucz V I 2009   19 wl:K09  19 gf:K09  19 K09  19 K09  19 K09  19 K09  19 K09  19 K09  19 K09   hfs:LGB,PBAG V",3d3.4s2 a2P,3d3.(4F).4s.4p.(1P*) v4D*,0.5,1.0,1.0
V 1,4802.1845,-4.07,1.7111676870152839,1.5,4.292275333195133,2.5,1.2,1.28,1.34,8.39,-6.15,-7.65,0.042,"_          Kurucz V I 2009   19 wl:K09  19 gf:K09  19 K09  19 K09  19 K09  19 K09  19 K09  19 K09  19 K09   hfs:LGB,PBAG V",3d3.4s2 a2P,3d3.(4F).4s.4p.(1P*) v4D*,0.5,1.0,1.0
V 1,4802.1852,-4.062,1.7111732056758973,1.5,4.292280446427419,2.5,1.2,1.28,1.34,8.39,-6.15,-7.65,0.042,"_          Kurucz V I 2009   19 wl:K09  19 gf:K09  19 K09  19 K09  19 K09  19 K09  19 K09  19 K09  19 K09   hfs:LGB,PBAG V",3d3.4s2 a2P,3d3.(4F).4s.4p.(1P*) v4D*,0.5,1.0,1.0
V 1,4802.1862,-4.223,1.711180103908676,1.5,4.2922868381847525,2.5,1.2,1.28,1.34,8.39,-6.15,-7.65,0.042,"_          Kurucz V I 2009   19 wl:K09  19 gf:K09  19 K09  19 K09  19 K09  19 K09  19 K09  19 K09  19 K09   hfs:LGB,PBAG V",3d3.4s2 a2P,3d3.(4F).4s.4p.(1P*) v4D*,0.5,1.0,1.0
V 1,4802.1887,-4.234,1.7111635480508196,1.5,4.2922689414378,2.5,1.2,1.28,1.34,8.39,-6.15,-7.65,0.042,"_          Kurucz V I 2009   19 wl:K09  19 gf:K09  19 K09  19 K09  19 K09  19 K09  19 K09  19 K09  19 K09   hfs:LGB,PBAG V",3d3.4s2 a2P,3d3.(4F).4s.4p.(1P*) v4D*,0.5,1.0,1.0
TiO 1,4802.1892,0.159,1.325757816211777,105.0,3.906862946876243,105.0,99.0,99.0,99.0,7.459,0.0,0.0,0.001,_                             6 wl:PPN2012   6 gf:PPN2012   6 PPN2012   6 PPN2012   6 PPN2012   6 PPN2012   6 PPN2012   6 PPN2012   6 PPN2012    (48)TiO,"8s2.9s1.3p4.1d1 X,3,2,-,105,5","8s2.3p4.4p1.1d1 B,3,1,+,105,8",0.5,1.0,1.0
TiO 1,4802.1896,-0.601,0.9030286611789609,101.0,3.474355728516266,100.0,99.0,99.0,99.0,7.26,0.0,0.0,0.001,_          -18.2614           8 wl:PPN2012   8 gf:PPN2012   8 PPN2012   8 PPN2012   8 PPN2012   8 PPN2012   8 PPN2012   8 PPN2012   8 PPN2012    (49)TiO,"8s2.9s1.3p4.1d1 X,3,2,0,100,2","8s2.11s1.3p4.1d1 C,3,2,0,99,5",0.5,1.0,1.0
V 1,4802.1916,-4.41,1.7111676870152839,1.5,4.292271498115936,2.5,1.2,1.28,1.34,8.39,-6.15,-7.65,0.042,"_          Kurucz V I 2009   19 wl:K09  19 gf:K09  19 K09  19 K09  19 K09  19 K09  19 K09  19 K09  19 K09   hfs:LGB,PBAG V",3d3.4s2 a2P,3d3.(4F).4s.4p.(1P*) v4D*,0.5,1.0,1.0
V 1,4802.1947,-4.66,1.7111732056758973,1.5,4.292275333195133,2.5,1.2,1.28,1.34,8.39,-6.15,-7.65,0.042,"_          Kurucz V I 2009   19 wl:K09  19 gf:K09  19 K09  19 K09  19 K09  19 K09  19 K09  19 K09  19 K09   hfs:LGB,PBAG V",3d3.4s2 a2P,3d3.(4F).4s.4p.(1P*) v4D*,0.5,1.0,1.0
V 1,4802.1981,-5.088,1.711180103908676,1.5,4.292280446427419,2.5,1.2,1.28,1.34,8.39,-6.15,-7.65,0.042,"_          Kurucz V I 2009   19 wl:K09  19 gf:K09  19 K09  19 K09  19 K09  19 K09  19 K09  19 K09  19 K09   hfs:LGB,PBAG V",3d3.4s2 a2P,3d3.(4F).4s.4p.(1P*) v4D*,0.5,1.0,1.0
TiO 1,4802.2031,-0.75,0.18150356628145603,48.0,2.762646884078743,47.0,99.0,99.0,99.0,7.316,0.0,0.0,0.011000000000000001,_          0.0849964          3 wl:PPN2012   3 gf:PPN2012   3 PPN2012   3 PPN2012   3 PPN2012   3 PPN2012   3 PPN2012   3 PPN2012   3 PPN2012    (46)TiO,"8s2.9s1.3p4.1d1 X,3,2,0,49,0","8s2.11s1.3p4.1d1 C,3,2,0,48,2",0.5,1.0,1.0
TiO 1,4802.2115,0.48700000000000004,1.3824995561365732,116.0,3.9635926603338842,115.0,99.0,99.0,99.0,7.229,0.0,0.0,0.002,_                             6 wl:PPN2012   6 gf:PPN2012   6 PPN2012   6 PPN2012   6 PPN2012   6 PPN2012   6 PPN2012   6 PPN2012   6 PPN2012    (48)TiO,"8s2.9s1.3p4.1d1 X,3,2,0,117,4","8s2.11s1.3p4.1d1 C,3,2,0,116,8",0.5,1.0,1.0
TiO 1,4802.215,-0.006,1.2051349419208426,27.0,3.7862261987536114,28.0,99.0,99.0,99.0,7.362,0.0,0.0,0.001,_                             6 wl:PPN2012   6 gf:PPN2012   6 PPN2012   6 PPN2012   6 PPN2012   6 PPN2012   6 PPN2012   6 PPN2012   6 PPN2012    (48)TiO,"8s2.9s1.3p4.1d1 a,1,2,0,27,6","8s2.11s1.3p4.1d1 f,1,2,0,28,9",0.5,1.0,1.0
MgH 1,4802.242,-2.167,0.4864846066179789,21.5,3.0675613449012245,20.5,99.0,99.0,99.0,7.06,0.0,0.0,0.004,_                            18 wl:KMGH  18 gf:KMGH  18 KMGH  18 KMGH  18 KMGH  18 KMGH  18 KMGH  18 KMGH  18 KMGH    (24)MgH,"4s2.5s1 X,2,0,e,21,1","4s1.5s2/4s2.7s1/4s2.6s1 B,2,0,e,20,2",0.5,1.0,1.0
MgH 1,4802.242,-2.187,0.4864846066179789,20.5,3.0675613449012245,19.5,99.0,99.0,99.0,7.06,0.0,0.0,0.004,_                            18 wl:KMGH  18 gf:KMGH  18 KMGH  18 KMGH  18 KMGH  18 KMGH  18 KMGH  18 KMGH  18 KMGH    (24)MgH,"4s2.5s1 X,2,0,f,21,1","4s1.5s2/4s2.7s1/4s2.6s1 B,2,0,f,20,2",0.5,1.0,1.0