species,wlcent,gflog,excit,j_lo,e_upp,j_up,lande_lower,lande_upper,lande,gamrad,gamqst,gamvw,depth,reference,term_lower,term_upper,error,atom_number,ionization
TiO 1,4891.1002,0.5710000000000001,0.8265677305833308,110.0,3.360909319941718,111.0,99.0,99.0,99.0,7.25,0.0,0.0,0.021,_          0.299934           6 wl:PPN2012   6 gf:PPN2012   6 PPN2012   6 PPN2012   6 PPN2012   6 PPN2012   6 PPN2012   6 PPN2012   6 PPN2012    (48)TiO,"8s2.9s1.3p4.1d1 X,3,2,0,111,0","8s2.11s1.3p4.1d1 C,3,2,0,112,2",0.5,1.0,1.0
TiO 1,4891.1158,-0.154,1.1185510363591098,88.0,3.652729065764194,89.0,99.0,99.0,99.0,7.263,0.0,0.0,0.001,_                             6 wl:PPN2012   6 gf:PPN2012   6 PPN2012   6 PPN2012   6 PPN2012   6 PPN2012   6 PPN2012   6 PPN2012   6 PPN2012    (48)TiO,"8s2.9s1.3p4.1d1 X,3,2,0,88,5","8s2.11s1.3p4.1d1 C,3,2,0,89,8",0.5,1.0,1.0
TiO 1,4891.1264,-0.654,0.7397560908476849,45.0,3.2739287021433396,45.0,99.0,99.0,99.0,7.382999999999999,0.0,0.0,0.002,_                             6 wl:PPN2012   6 gf:PPN2012   6 PPN2012   6 PPN2012   6 PPN2012   6 PPN2012   6 PPN2012   6 PPN2012   6 PPN2012    (48)TiO,"8s2.9s1.3p4.1d1 X,3,2,-,44,5","8s2.3p4.4p1.1d1 B,3,1,+,44,9",0.5,1.0,1.0
TiO 1,4891.131,-0.862,0.6388153979446395,61.0,3.1729856039468634,61.0,99.0,99.0,99.0,7.287000000000001,0.0,0.0,0.001,_                             6 wl:PPN2012   6 gf:PPN2012   6 PPN2012   6 PPN2012   6 PPN2012   6 PPN2012   6 PPN2012   6 PPN2012   6 PPN2012    (48)TiO,"8s2.9s1.3p4.1d1 X,3,2,-,62,3","8s2.3p4.4p1.1d1 B,3,1,+,62,7",0.5,1.0,1.0
TiO 1,4891.136,-0.369,0.699479824299514,92.0,3.2336999215428,93.0,99.0,99.0,99.0,7.273,0.0,0.0,0.004,_          0.101406           3 wl:PPN2012   3 gf:PPN2012   3 PPN2012   3 PPN2012   3 PPN2012   3 PPN2012   3 PPN2012   3 PPN2012   3 PPN2012    (46)TiO,"8s2.9s1.3p4.1d1 X,3,2,0,92,1","8s2.11s1.3p4.1d1 C,3,2,0,93,3",0.5,1.0,1.0
Cr 1,4891.1367,-4.061,2.96741992852559,4.0,5.501587121711815,3.0,0.8,0.93,0.61,6.23,-6.2,-7.79,0.013000000000000001,_          Kurucz Cr I 2016  10 wl:K16  10 gf:K16  10 K16  10 K16  10 K16  10 K16  10 K16  10 K16  10 K16    Cr,3d4.4s2 a3H,3d4.(a3F).4s.4p.(3P*) y5G*,0.5,1.0,1.0
Fe 1,4891.1463,-1.426,4.142648902541477,3.0,6.676811136359804,4.0,1.07,1.19,1.36,7.87,-4.29,-7.54,0.6829999999999999,_          Kurucz Fe I 2014   5 wl:K14   5 gf:K14   5 K14   5 K14   5 K14   5 K14   5 K14   5 K14   5 K14    Fe,3d8 c3F,3d7.(4F).5p 5G*,0.5,1.0,1.0
TiO 1,4891.1617,0.494,1.052177633647526,87.0,3.5863319324772145,88.0,99.0,99.0,99.0,7.372000000000001,0.0,0.0,0.006999999999999999,_                             6 wl:PPN2012   6 gf:PPN2012   6 PPN2012   6 PPN2012   6 PPN2012   6 PPN2012   6 PPN2012   6 PPN2012   6 PPN2012    (48)TiO,"8s2.9s1.3p4.1d1 a,1,2,0,87,1","8s2.11s1.3p4.1d1 f,1,2,0,88,3",0.5,1.0,1.0
TiO 1,4891.1635,0.491,0.5035863668960209,73.0,3.037776497158778,72.0,99.0,99.0,99.0,7.296,0.0,0.0,0.057999999999999996,_          0.0709946          6 wl:PPN2012   6 gf:PPN2012   6 PPN2012   6 PPN2012   6 PPN2012   6 PPN2012   6 PPN2012   6 PPN2012   6 PPN2012    (48)TiO,"8s2.9s1.3p4.1d1 X,3,2,0,74,1","8s2.11s1.3p4.1d1 C,3,2,0,73,3",0.5,1.0,1.0
TiO 1,4891.1708,-0.114,1.185388536718664,85.0,3.7195380745551696,84.0,99.0,99.0,99.0,7.486000000000001,0.0,0.0,0.001,_                             6 wl:PPN2012   6 gf:PPN2012   6 PPN2012   6 PPN2012   6 PPN2012   6 PPN2012   6 PPN2012   6 PPN2012   6 PPN2012    (48)TiO,"8s2.9s1.3p4.1d1 X,3,2,-,84,6","8s2.3p4.4p1.1d1 B,3,1,+,83,9",0.5,1.0,1.0
Fe 1,4891.1808,-3.483,4.208883244577179,2.0,6.74302762467107,1.0,1.49,0.76,1.86,7.99,-6.03,-7.51,0.055,_          Kurucz Fe I 2014   5 wl:K14   5 gf:K14   5 K14   5 K14   5 K14   5 K14   5 K14   5 K14   5 K14    Fe,3d6.(5D).4s.4p.(3P*) z3P*,3d7.(4F).4d g5F,0.5,1.0,1.0
TiO 1,4891.1986,-0.45,0.49751451359015586,75.0,3.03170771866101,74.0,99.0,99.0,99.0,7.294,0.0,0.0,0.006999999999999999,_          0.111965           3 wl:PPN2012   3 gf:PPN2012   3 PPN2012   3 PPN2012   3 PPN2012   3 PPN2012   3 PPN2012   3 PPN2012   3 PPN2012    (46)TiO,"8s2.9s1.3p4.1d1 X,3,2,0,74,1","8s2.11s1.3p4.1d1 C,3,2,0,73,3",0.5,1.0,1.0
V 1,4891.2007,-2.654,2.1222369287180136,3.5,4.65637104874761,3.5,0.96,1.02,0.99,7.89,-6.08,-7.77,0.495,"_          Wisconsin Sc-Mn_  24 wl:LWDFSC  24 gf:LWDFSC  24 LWDFSC  24 LWDFSC  19 K09  19 K09  19 K09  19 K09  19 K09   hfs:UBDE,GYDE V",3d4.(3G).4s a4G,3d4.(a3F).4p v4G*,0.5,1.0,1.0
V 1,4891.2055,-2.45,2.1222300793350084,3.5,4.656361726995724,3.5,0.96,1.02,0.99,7.89,-6.08,-7.77,0.495,"_          Wisconsin Sc-Mn_  24 wl:LWDFSC  24 gf:LWDFSC  24 LWDFSC  24 LWDFSC  19 K09  19 K09  19 K09  19 K09  19 K09   hfs:UBDE,GYDE V",3d4.(3G).4s a4G,3d4.(a3F).4p v4G*,0.5,1.0,1.0
V 1,4891.2099,-2.385,2.122224372466383,3.5,4.656353736834118,3.5,0.96,1.02,0.99,7.89,-6.08,-7.77,0.495,"_          Wisconsin Sc-Mn_  24 wl:LWDFSC  24 gf:LWDFSC  24 LWDFSC  24 LWDFSC  19 K09  19 K09  19 K09  19 K09  19 K09   hfs:UBDE,GYDE V",3d4.(3G).4s a4G,3d4.(a3F).4p v4G*,0.5,1.0,1.0
TiO 1,4891.2105,0.605,1.366667394040625,139.0,3.893244770594519,138.0,99.0,99.0,99.0,7.2,0.0,0.0,0.003,_          -14.6195           6 wl:PPN2012   6 gf:PPN2012   6 PPN2012   6 PPN2012   6 PPN2012   6 PPN2012   6 PPN2012   6 PPN2012   6 PPN2012    (48)TiO,"8s2.9s1.3p4.1d1 X,3,2,0,138,1","8s2.11s1.3p4.1d1 C,3,2,0,137,4",0.5,1.0,1.0
V 1,4891.2139,-2.392,2.122219807740185,3.5,4.656347078510762,3.5,0.96,1.02,0.99,7.89,-6.08,-7.77,0.495,"_          Wisconsin Sc-Mn_  24 wl:LWDFSC  24 gf:LWDFSC  24 LWDFSC  24 LWDFSC  19 K09  19 K09  19 K09  19 K09  19 K09   hfs:UBDE,GYDE V",3d4.(3G).4s a4G,3d4.(a3F).4p v4G*,0.5,1.0,1.0
V 1,4891.2161,-1.751,2.122244921235319,3.5,4.65637104874761,3.5,0.96,1.02,0.99,7.89,-6.08,-7.77,0.495,"_          Wisconsin Sc-Mn_  24 wl:LWDFSC  24 gf:LWDFSC  24 LWDFSC  24 LWDFSC  19 K09  19 K09  19 K09  19 K09  19 K09   hfs:UBDE,GYDE V",3d4.(3G).4s a4G,3d4.(a3F).4p v4G*,0.5,1.0,1.0
V 1,4891.2176,-2.458,2.1222163845364928,3.5,4.656341751777685,3.5,0.96,1.02,0.99,7.89,-6.08,-7.77,0.495,"_          Wisconsin Sc-Mn_  24 wl:LWDFSC  24 gf:LWDFSC  24 LWDFSC  24 LWDFSC  19 K09  19 K09  19 K09  19 K09  19 K09   hfs:UBDE,GYDE V",3d4.(3G).4s a4G,3d4.(a3F).4p v4G*,0.5,1.0,1.0
V 1,4891.2187,-1.9380000000000002,2.1222369287180136,3.5,4.656361726995724,3.5,0.96,1.02,0.99,7.89,-6.08,-7.77,0.495,"_          Wisconsin Sc-Mn_  24 wl:LWDFSC  24 gf:LWDFSC  24 LWDFSC  24 LWDFSC  19 K09  19 K09  19 K09  19 K09  19 K09   hfs:UBDE,GYDE V",3d4.(3G).4s a4G,3d4.(a3F).4p v4G*,0.5,1.0,1.0
V 1,4891.2209,-2.157,2.1222300793350084,3.5,4.656353736834118,3.5,0.96,1.02,0.99,7.89,-6.08,-7.77,0.495,"_          Wisconsin Sc-Mn_  24 wl:LWDFSC  24 gf:LWDFSC  24 LWDFSC  24 LWDFSC  19 K09  19 K09  19 K09  19 K09  19 K09   hfs:UBDE,GYDE V",3d4.(3G).4s a4G,3d4.(a3F).4p v4G*,0.5,1.0,1.0
V 1,4891.2209,-2.596,2.1222141026073382,3.5,4.6563377566348905,3.5,0.96,1.02,0.99,7.89,-6.08,-7.77,0.495,"_          Wisconsin Sc-Mn_  24 wl:LWDFSC  24 gf:LWDFSC  24 LWDFSC  24 LWDFSC  19 K09  19 K09  19 K09  19 K09  19 K09   hfs:UBDE,GYDE V",3d4.(3G).4s a4G,3d4.(a3F).4p v4G*,0.5,1.0,1.0
V 1,4891.2227,-2.42,2.122224372466383,3.5,4.656347078510762,3.5,0.96,1.02,0.99,7.89,-6.08,-7.77,0.495,"_          Wisconsin Sc-Mn_  24 wl:LWDFSC  24 gf:LWDFSC  24 LWDFSC  24 LWDFSC  19 K09  19 K09  19 K09  19 K09  19 K09   hfs:UBDE,GYDE V",3d4.(3G).4s a4G,3d4.(a3F).4p v4G*,0.5,1.0,1.0
Fe 1,4891.2236,-2.923,4.548506089607843,4.0,7.082628276530387,4.0,1.25,1.53,1.39,8.21,-4.3,-7.29,0.065,_          Kurucz Fe I 2014   5 wl:K14   5 gf:K14   5 K14   5 K14   5 K14   5 K14   5 K14   5 K14   5 K14    Fe,3d7.(4F).4p y3F*,3d6.4s.(6D).5d 7G,0.5,1.0,1.0
V 1,4891.2238,-2.8760000000000003,2.122212961704753,3.5,4.656335093330345,3.5,0.96,1.02,0.99,7.89,-6.08,-7.77,0.495,"_          Wisconsin Sc-Mn_  24 wl:LWDFSC  24 gf:LWDFSC  24 LWDFSC  24 LWDFSC  19 K09  19 K09  19 K09  19 K09  19 K09   hfs:UBDE,GYDE V",3d4.(3G).4s a4G,3d4.(a3F).4p v4G*,0.5,1.0,1.0
V 1,4891.2242,-2.7510000000000003,2.122219807740185,3.5,4.656341751777685,3.5,0.96,1.02,0.99,7.89,-6.08,-7.77,0.495,"_          Wisconsin Sc-Mn_  24 wl:LWDFSC  24 gf:LWDFSC  24 LWDFSC  24 LWDFSC  19 K09  19 K09  19 K09  19 K09  19 K09   hfs:UBDE,GYDE V",3d4.(3G).4s a4G,3d4.(a3F).4p v4G*,0.5,1.0,1.0
V 1,4891.2253,-3.198,2.1222163845364928,3.5,4.6563377566348905,3.5,0.96,1.02,0.99,7.89,-6.08,-7.77,0.495,"_          Wisconsin Sc-Mn_  24 wl:LWDFSC  24 gf:LWDFSC  24 LWDFSC  24 LWDFSC  19 K09  19 K09  19 K09  19 K09  19 K09   hfs:UBDE,GYDE V",3d4.(3G).4s a4G,3d4.(a3F).4p v4G*,0.5,1.0,1.0
V 1,4891.226,-3.897,2.1222141026073382,3.5,4.656335093330345,3.5,0.96,1.02,0.99,7.89,-6.08,-7.77,0.495,"_          Wisconsin Sc-Mn_  24 wl:LWDFSC  24 gf:LWDFSC  24 LWDFSC  24 LWDFSC  19 K09  19 K09  19 K09  19 K09  19 K09   hfs:UBDE,GYDE V",3d4.(3G).4s a4G,3d4.(a3F).4p v4G*,0.5,1.0,1.0
V 1,4891.2286,-2.8760000000000003,2.1222141026073382,3.5,4.65633376161608,3.5,0.96,1.02,0.99,7.89,-6.08,-7.77,0.495,"_          Wisconsin Sc-Mn_  24 wl:LWDFSC  24 gf:LWDFSC  24 LWDFSC  24 LWDFSC  19 K09  19 K09  19 K09  19 K09  19 K09   hfs:UBDE,GYDE V",3d4.(3G).4s a4G,3d4.(a3F).4p v4G*,0.5,1.0,1.0
TiO 1,4891.2297,-0.674,0.5568188952908818,67.0,3.0910026651643085,68.0,99.0,99.0,99.0,7.297000000000001,0.0,0.0,0.003,_          0.124918           2 wl:PPN2012   2 gf:PPN2012   2 PPN2012   2 PPN2012   2 PPN2012   2 PPN2012   2 PPN2012   2 PPN2012   2 PPN2012    (47)TiO,"8s2.9s1.3p4.1d1 X,3,2,0,67,2","8s2.11s1.3p4.1d1 C,3,2,0,68,4",0.5,1.0,1.0
V 1,4891.2304,-2.596,2.1222163845364928,3.5,4.656335093330345,3.5,0.96,1.02,0.99,7.89,-6.08,-7.77,0.495,"_          Wisconsin Sc-Mn_  24 wl:LWDFSC  24 gf:LWDFSC  24 LWDFSC  24 LWDFSC  19 K09  19 K09  19 K09  19 K09  19 K09   hfs:UBDE,GYDE V",3d4.(3G).4s a4G,3d4.(a3F).4p v4G*,0.5,1.0,1.0
V 1,4891.2319,-2.458,2.122219807740185,3.5,4.6563377566348905,3.5,0.96,1.02,0.99,7.89,-6.08,-7.77,0.495,"_          Wisconsin Sc-Mn_  24 wl:LWDFSC  24 gf:LWDFSC  24 LWDFSC  24 LWDFSC  19 K09  19 K09  19 K09  19 K09  19 K09   hfs:UBDE,GYDE V",3d4.(3G).4s a4G,3d4.(a3F).4p v4G*,0.5,1.0,1.0
V 1,4891.233,-2.392,2.122224372466383,3.5,4.656341751777685,3.5,0.96,1.02,0.99,7.89,-6.08,-7.77,0.495,"_          Wisconsin Sc-Mn_  24 wl:LWDFSC  24 gf:LWDFSC  24 LWDFSC  24 LWDFSC  19 K09  19 K09  19 K09  19 K09  19 K09   hfs:UBDE,GYDE V",3d4.(3G).4s a4G,3d4.(a3F).4p v4G*,0.5,1.0,1.0
V 1,4891.2337,-2.385,2.1222300793350084,3.5,4.656347078510762,3.5,0.96,1.02,0.99,7.89,-6.08,-7.77,0.495,"_          Wisconsin Sc-Mn_  24 wl:LWDFSC  24 gf:LWDFSC  24 LWDFSC  24 LWDFSC  19 K09  19 K09  19 K09  19 K09  19 K09   hfs:UBDE,GYDE V",3d4.(3G).4s a4G,3d4.(a3F).4p v4G*,0.5,1.0,1.0
V 1,4891.2341,-2.45,2.1222369287180136,3.5,4.656353736834118,3.5,0.96,1.02,0.99,7.89,-6.08,-7.77,0.495,"_          Wisconsin Sc-Mn_  24 wl:LWDFSC  24 gf:LWDFSC  24 LWDFSC  24 LWDFSC  19 K09  19 K09  19 K09  19 K09  19 K09   hfs:UBDE,GYDE V",3d4.(3G).4s a4G,3d4.(a3F).4p v4G*,0.5,1.0,1.0
V 1,4891.2341,-2.654,2.122244921235319,3.5,4.656361726995724,3.5,0.96,1.02,0.99,7.89,-6.08,-7.77,0.495,"_          Wisconsin Sc-Mn_  24 wl:LWDFSC  24 gf:LWDFSC  24 LWDFSC  24 LWDFSC  19 K09  19 K09  19 K09  19 K09  19 K09   hfs:UBDE,GYDE V",3d4.(3G).4s a4G,3d4.(a3F).4p v4G*,0.5,1.0,1.0
TiO 1,4891.2351,-0.7929999999999999,0.7621232244223081,36.0,3.2962395344938917,35.0,99.0,99.0,99.0,7.393,0.0,0.0,0.001,_                             2 wl:PPN2012   2 gf:PPN2012   2 PPN2012   2 PPN2012   2 PPN2012   2 PPN2012   2 PPN2012   2 PPN2012   2 PPN2012    (47)TiO,"8s2.9s1.3p4.1d1 a,1,2,0,36,2","8s2.11s1.3p4.1d1 f,1,2,0,35,4",0.5,1.0,1.0
TiO 1,4891.2389,0.20199999999999999,0.41790744678846214,49.0,2.9520337375879424,48.0,99.0,99.0,99.0,7.312,0.0,0.0,0.040999999999999995,_          0.0232331          6 wl:PPN2012   6 gf:PPN2012   6 PPN2012   6 PPN2012   6 PPN2012   6 PPN2012   6 PPN2012   6 PPN2012   6 PPN2012    (48)TiO,"8s2.9s1.3p4.1d1 X,3,2,0,49,2","8s2.11s1.3p4.1d1 C,3,2,0,48,4",0.5,1.0,1.0
TiO 1,4891.2406,-0.823,0.5497378230160296,65.0,3.083865018900151,66.0,99.0,99.0,99.0,7.2989999999999995,0.0,0.0,0.002,_          0.0267320          8 wl:PPN2012   8 gf:PPN2012   8 PPN2012   8 PPN2012   8 PPN2012   8 PPN2012   8 PPN2012   8 PPN2012   8 PPN2012    (49)TiO,"8s2.9s1.3p4.1d1 X,3,2,0,66,2","8s2.11s1.3p4.1d1 C,3,2,0,67,4",0.5,1.0,1.0
TiO 1,4891.2529,-0.639,0.4960312658389813,74.0,3.0302180485284067,73.0,99.0,99.0,99.0,7.295,0.0,0.0,0.004,_          0.153902           8 wl:PPN2012   8 gf:PPN2012   8 PPN2012   8 PPN2012   8 PPN2012   8 PPN2012   8 PPN2012   8 PPN2012   8 PPN2012    (49)TiO,"8s2.9s1.3p4.1d1 X,3,2,0,74,1","8s2.11s1.3p4.1d1 C,3,2,0,73,3",0.5,1.0,1.0
TiO 1,4891.2595,-0.758,0.42781668539654616,48.0,2.9619290403722305,47.0,99.0,99.0,99.0,7.312,0.0,0.0,0.004,_          0.0168254          3 wl:PPN2012   3 gf:PPN2012   3 PPN2012   3 PPN2012   3 PPN2012   3 PPN2012   3 PPN2012   3 PPN2012   3 PPN2012    (46)TiO,"8s2.9s1.3p4.1d1 X,3,2,0,49,2","8s2.11s1.3p4.1d1 C,3,2,0,48,4",0.5,1.0,1.0
TiO 1,4891.2603,-0.418,0.7006879387180828,91.0,3.2348129276834894,92.0,99.0,99.0,99.0,7.274,0.0,0.0,0.003,_          0.0420902          2 wl:PPN2012   2 gf:PPN2012   2 PPN2012   2 PPN2012   2 PPN2012   2 PPN2012   2 PPN2012   2 PPN2012   2 PPN2012    (47)TiO,"8s2.9s1.3p4.1d1 X,3,2,0,92,1","8s2.11s1.3p4.1d1 C,3,2,0,93,3",0.5,1.0,1.0
CH 1,4891.27,-3.011,1.1382777156754709,10.5,3.6723758496637053,9.5,99.0,99.0,99.0,6.27,0.0,0.0,0.001,_                            37 wl:JLIY  37 gf:JLIY  37 JLIY  37 JLIY  37 JLIY  37 JLIY  37 JLIY  37 JLIY  37 JLIY    (12)CH,"1s2.2s2.3s2.1p1 X,2,1,e,10,3","1s2.2s2.3s1.1p2 A,2,2,e,9,2",0.5,1.0,1.0
TiO 1,4891.2744,-0.635,0.564868755287926,66.0,3.098977452729785,67.0,99.0,99.0,99.0,7.297999999999999,0.0,0.0,0.003,_          0.0247361          3 wl:PPN2012   3 gf:PPN2012   3 PPN2012   3 PPN2012   3 PPN2012   3 PPN2012   3 PPN2012   3 PPN2012   3 PPN2012    (46)TiO,"8s2.9s1.3p4.1d1 X,3,2,0,67,2","8s2.11s1.3p4.1d1 C,3,2,0,68,4",0.5,1.0,1.0
Ce 2,4891.2753,-0.6,1.79553046886856,2.5,4.32962587520445,3.5,0.92,1.11,1.35,0.0,0.0,0.0,0.051,C-0.104    Ce 2: DREAM data  15 wl:PQWB  15 gf:PQWB  15 PQWB  15 PQWB  15 PQWB  15 PQWB  15 PQWB  15 PQWB  15 PQWB    Ce+,4f.(2F*).5d2.(1D) *,4f.5d.(1F*).6p 4f.5d.(1F*).6p,0.104,1.0,2.0
TiO 1,4891.2953,-0.95,0.4171368602043458,47.0,2.951230072019941,46.0,99.0,99.0,99.0,7.313,0.0,0.0,0.003,_          0.0156698          8 wl:PPN2012   8 gf:PPN2012   8 PPN2012   8 PPN2012   8 PPN2012   8 PPN2012   8 PPN2012   8 PPN2012   8 PPN2012    (49)TiO,"8s2.9s1.3p4.1d1 X,3,2,0,48,2","8s2.11s1.3p4.1d1 C,3,2,0,47,4",0.5,1.0,1.0
TiO 1,4891.2959,0.222,1.0527766261023437,91.0,3.5868613450004116,90.0,99.0,99.0,99.0,7.265,0.0,0.0,0.004,_                             6 wl:PPN2012   6 gf:PPN2012   6 PPN2012   6 PPN2012   6 PPN2012   6 PPN2012   6 PPN2012   6 PPN2012   6 PPN2012    (48)TiO,"8s2.9s1.3p4.1d1 X,3,2,0,92,4","8s2.11s1.3p4.1d1 C,3,2,0,91,7",0.5,1.0,1.0
TiO 1,4891.2962,-0.498,0.5826902190354426,94.0,3.1167530671210772,93.0,99.0,99.0,99.0,7.275,0.0,0.0,0.004,_          -0.0419062         2 wl:PPN2012   2 gf:PPN2012   2 PPN2012   2 PPN2012   2 PPN2012   2 PPN2012   2 PPN2012   2 PPN2012   2 PPN2012    (47)TiO,"8s2.9s1.3p4.1d1 X,3,2,0,93,0","8s2.11s1.3p4.1d1 C,3,2,0,92,2",0.5,1.0,1.0
Cr 1,4891.299,-0.467,5.23859779327966,6.0,7.77268092518,5.0,1.28,1.27,1.29,8.06,-3.95,-7.35,0.025,_      A   Kurucz Cr I 2016  10 wl:K16  10 gf:K16  10 K16  10 K16  10 K16  10 K16  10 K16  10 K16  10 K16    Cr,3d4.(3H).4s.4p.(3P*) z5H*,3d5.(4G).4d f5G,0.5,1.0,1.0
TiO 1,4891.2996,-0.564,0.8225062438441846,110.0,3.3567444427803013,111.0,99.0,99.0,99.0,7.25,0.0,0.0,0.001,_          0.299934           8 wl:PPN2012   8 gf:PPN2012   8 PPN2012   8 PPN2012   8 PPN2012   8 PPN2012   8 PPN2012   8 PPN2012   8 PPN2012    (49)TiO,"8s2.9s1.3p4.1d1 X,3,2,0,111,0","8s2.11s1.3p4.1d1 C,3,2,0,112,2",0.5,1.0,1.0
CH 1,4891.311,-3.3489999999999998,0.7285783823137039,6.5,3.2626554389883684,5.5,99.0,99.0,99.0,6.27,0.0,0.0,0.002,_                            37 wl:JLIY  37 gf:JLIY  37 JLIY  37 JLIY  37 JLIY  37 JLIY  37 JLIY  37 JLIY  37 JLIY    (12)CH,"1s2.2s2.3s2.1p1 X,2,1,e,6,2","1s2.2s2.3s1.1p2 A,2,2,e,5,1",0.5,1.0,1.0
TiO 1,4891.3335,-0.831,0.5361969136861692,67.0,3.0701331491093473,68.0,99.0,99.0,99.0,7.297000000000001,0.0,0.0,0.002,_          -0.249121          4 wl:PPN2012   4 gf:PPN2012   4 PPN2012   4 PPN2012   4 PPN2012   4 PPN2012   4 PPN2012   4 PPN2012   4 PPN2012    (50)TiO,"8s2.9s1.3p4.1d1 X,3,2,0,66,2","8s2.11s1.3p4.1d1 C,3,2,0,67,4",0.5,1.0,1.0
TiO 1,4891.4165,-0.736,0.7681801624292174,37.0,3.30220243048702,36.0,99.0,99.0,99.0,7.392,0.0,0.0,0.001,_                             3 wl:PPN2012   3 gf:PPN2012   3 PPN2012   3 PPN2012   3 PPN2012   3 PPN2012   3 PPN2012   3 PPN2012   3 PPN2012    (46)TiO,"8s2.9s1.3p4.1d1 a,1,2,0,37,2","8s2.11s1.3p4.1d1 f,1,2,0,36,4",0.5,1.0,1.0
TiO 1,4891.4191,-0.669,0.5512346966305063,68.0,3.085108456416579,69.0,99.0,99.0,99.0,7.297000000000001,0.0,0.0,0.003,_          -0.284248          2 wl:PPN2012   2 gf:PPN2012   2 PPN2012   2 PPN2012   2 PPN2012   2 PPN2012   2 PPN2012   2 PPN2012   2 PPN2012    (47)TiO,"8s2.9s1.3p4.1d1 X,3,2,0,67,2","8s2.11s1.3p4.1d1 C,3,2,0,68,4",0.5,1.0,1.0
TiO 1,4891.4257,-0.853,0.6847953715211273,53.0,3.2188128909841667,53.0,99.0,99.0,99.0,7.329,0.0,0.0,0.001,_                             6 wl:PPN2012   6 gf:PPN2012   6 PPN2012   6 PPN2012   6 PPN2012   6 PPN2012   6 PPN2012   6 PPN2012   6 PPN2012    (48)TiO,"8s2.9s1.3p4.1d1 X,3,2,-,53,4","8s2.3p4.4p1.1d1 B,3,1,+,53,8",0.5,1.0,1.0
TiO 1,4891.4265,0.622,1.4305431846878525,136.0,3.937928427394358,135.0,99.0,99.0,99.0,7.204,0.0,0.0,0.002,_          -51.9545           6 wl:PPN2012   6 gf:PPN2012   6 PPN2012   6 PPN2012   6 PPN2012   6 PPN2012   6 PPN2012   6 PPN2012   6 PPN2012    (48)TiO,"8s2.9s1.3p4.1d1 X,3,2,0,135,2","8s2.11s1.3p4.1d1 C,3,2,0,134,5",0.5,1.0,1.0
TiO 1,4891.4373,-0.376,0.8312878213794382,111.0,3.3653090231731424,112.0,99.0,99.0,99.0,7.249,0.0,0.0,0.002,_          0.0186316          3 wl:PPN2012   3 gf:PPN2012   3 PPN2012   3 PPN2012   3 PPN2012   3 PPN2012   3 PPN2012   3 PPN2012   3 PPN2012    (46)TiO,"8s2.9s1.3p4.1d1 X,3,2,0,111,0","8s2.11s1.3p4.1d1 C,3,2,0,112,2",0.5,1.0,1.0
TiO 1,4891.4497,0.23399999999999999,1.233319562821801,108.0,3.7673246838650933,109.0,99.0,99.0,99.0,7.242000000000001,0.0,0.0,0.002,_                             6 wl:PPN2012   6 gf:PPN2012   6 PPN2012   6 PPN2012   6 PPN2012   6 PPN2012   6 PPN2012   6 PPN2012   6 PPN2012    (48)TiO,"8s2.9s1.3p4.1d1 X,3,2,0,107,4","8s2.11s1.3p4.1d1 C,3,2,0,108,7",0.5,1.0,1.0
TiO 1,4891.4758,-0.414,0.6960890176781628,92.0,3.230133144149979,93.0,99.0,99.0,99.0,7.273,0.0,0.0,0.003,_          0.101406           2 wl:PPN2012   2 gf:PPN2012   2 PPN2012   2 PPN2012   2 PPN2012   2 PPN2012   2 PPN2012   2 PPN2012   2 PPN2012    (47)TiO,"8s2.9s1.3p4.1d1 X,3,2,0,92,1","8s2.11s1.3p4.1d1 C,3,2,0,93,3",0.5,1.0,1.0
C2 1,4891.4801,0.418,1.3779488401526294,81.0,3.911914559017966,82.0,99.0,99.0,99.0,6.77,0.0,0.0,0.003,_                             9 wl:BBSB   9 gf:BBSB   9 BBSB   9 BBSB   9 BBSB   9 BBSB   9 BBSB   9 BBSB   9 BBSB    (12)C(12)C,"2sg2.2su2.3sg1.1pu3 a,3,1,e,81,0,g","2sg2.2su1.3sg1.1pu3/2sg2.2su2.3sg1.1pg1.1pu2 d,3,1,e,82,0,g",0.5,1.0,1.0
TiO 1,4891.4841,-0.853,0.6847953715211273,53.0,3.218782638839984,53.0,99.0,99.0,99.0,7.329,0.0,0.0,0.001,_                             6 wl:PPN2012   6 gf:PPN2012   6 PPN2012   6 PPN2012   6 PPN2012   6 PPN2012   6 PPN2012   6 PPN2012   6 PPN2012    (48)TiO,"8s2.9s1.3p4.1d1 X,3,2,+,53,4","8s2.3p4.4p1.1d1 B,3,1,-,53,8",0.5,1.0,1.0
C2 1,4891.4903,0.424,1.3779404092272016,82.0,3.911906128092538,83.0,99.0,99.0,99.0,6.77,0.0,0.0,0.003,_                             9 wl:BBSB   9 gf:BBSB   9 BBSB   9 BBSB   9 BBSB   9 BBSB   9 BBSB   9 BBSB   9 BBSB    (12)C(12)C,"2sg2.2su2.3sg1.1pu3 a,3,1,f,81,0,g","2sg2.2su1.3sg1.1pu3/2sg2.2su2.3sg1.1pg1.1pu2 d,3,1,f,82,0,g",0.5,1.0,1.0