species,wlcent,gflog,excit,j_lo,e_upp,j_up,lande_lower,lande_upper,lande,gamrad,gamqst,gamvw,depth,reference,term_lower,term_upper,error,atom_number,ionization
TiO 1,4875.4692,-0.96,0.6408362907697237,63.0,3.18314710080312,63.0,99.0,99.0,99.0,7.289,0.0,0.0,0.001,_                             6 wl:PPN2012   6 gf:PPN2012   6 PPN2012   6 PPN2012   6 PPN2012   6 PPN2012   6 PPN2012   6 PPN2012   6 PPN2012    (48)TiO,"8s2.9s1.3p4.1d1 X,3,2,-,63,3","8s2.3p4.4p1.1d1 B,3,1,+,63,7",0.5,1.0,1.0
V 1,4875.4711,-2.064,0.04009967597969833,3.5,2.5824094511169986,2.5,1.24,1.35,1.1,7.16,-5.86,-7.736000000000001,0.99,"_          Wisconsin Sc-Mn_  24 wl:LWDFSC  24 gf:LWDFSC  24 LWDFSC  24 LWDFSC  19 K09  19 K09  19 K09  25 BPM  44 MFW   hfs:UBDE,PBAG V",- a4F,- z4D*,0.5,1.0,1.0
V 1,4875.4775,-2.742,0.04009038695963967,3.5,2.5823968151435293,2.5,1.24,1.35,1.1,7.16,-5.86,-7.736000000000001,0.99,"_          Wisconsin Sc-Mn_  24 wl:LWDFSC  24 gf:LWDFSC  24 LWDFSC  24 LWDFSC  19 K09  19 K09  19 K09  25 BPM  44 MFW   hfs:UBDE,PBAG V",- a4F,- z4D*,0.5,1.0,1.0
V 1,4875.483,-1.561,0.04010587556152443,3.5,2.5824094511169986,2.5,1.24,1.35,1.1,7.16,-5.86,-7.736000000000001,0.99,"_          Wisconsin Sc-Mn_  24 wl:LWDFSC  24 gf:LWDFSC  24 LWDFSC  24 LWDFSC  19 K09  19 K09  19 K09  25 BPM  44 MFW   hfs:UBDE,PBAG V",- a4F,- z4D*,0.5,1.0,1.0
TiO 1,4875.4854,-0.8809999999999999,0.443818904217744,55.0,2.9861266642398827,56.0,99.0,99.0,99.0,7.307,0.0,0.0,0.003,_          0.0104962          8 wl:PPN2012   8 gf:PPN2012   8 PPN2012   8 PPN2012   8 PPN2012   8 PPN2012   8 PPN2012   8 PPN2012   8 PPN2012    (49)TiO,"8s2.9s1.3p4.1d1 X,3,2,0,54,2","8s2.11s1.3p4.1d1 C,3,2,0,55,4",0.5,1.0,1.0
V 1,4875.4854,-2.01,0.040094513897636665,3.5,2.5823968151435293,2.5,1.24,1.35,1.1,7.16,-5.86,-7.736000000000001,0.99,"_          Wisconsin Sc-Mn_  24 wl:LWDFSC  24 gf:LWDFSC  24 LWDFSC  24 LWDFSC  19 K09  19 K09  19 K09  25 BPM  44 MFW   hfs:UBDE,PBAG V",- a4F,- z4D*,0.5,1.0,1.0
V 1,4875.4909,-2.617,0.040087293429928596,3.5,2.582386706463941,2.5,1.24,1.35,1.1,7.16,-5.86,-7.736000000000001,0.99,"_          Wisconsin Sc-Mn_  24 wl:LWDFSC  24 gf:LWDFSC  24 LWDFSC  24 LWDFSC  19 K09  19 K09  19 K09  25 BPM  44 MFW   hfs:UBDE,PBAG V",- a4F,- z4D*,0.5,1.0,1.0
TiO 1,4875.4953,0.213,0.9799481349305144,86.0,3.522245368694288,85.0,99.0,99.0,99.0,7.271,0.0,0.0,0.005,_                             6 wl:PPN2012   6 gf:PPN2012   6 PPN2012   6 PPN2012   6 PPN2012   6 PPN2012   6 PPN2012   6 PPN2012   6 PPN2012    (48)TiO,"8s2.9s1.3p4.1d1 X,3,2,0,86,4","8s2.11s1.3p4.1d1 C,3,2,0,85,7",0.5,1.0,1.0
V 1,4875.4953,-1.725,0.04009967597969833,3.5,2.5823968151435293,2.5,1.24,1.35,1.1,7.16,-5.86,-7.736000000000001,0.99,"_          Wisconsin Sc-Mn_  24 wl:LWDFSC  24 gf:LWDFSC  24 LWDFSC  24 LWDFSC  19 K09  19 K09  19 K09  25 BPM  44 MFW   hfs:UBDE,PBAG V",- a4F,- z4D*,0.5,1.0,1.0
Ca 1,4875.4959,-2.26,5.026058130734889,3.0,7.568354967749231,4.0,1.0,1.24,1.59,7.51,-3.14,-6.78,0.001,_      A   Kurucz CaI 2007   27 wl:K07  27 gf:K07  27 K07  27 K07  27 K07  27 K07  27 K07  27 K07  27 K07    Ca,3p6.3d.4p 1F*,3p6.3d.8d 3F,0.5,1.0,1.0
V 1,4875.4969,-2.032,0.04009038695963967,3.5,2.582386706463941,2.5,1.24,1.35,1.1,7.16,-5.86,-7.736000000000001,0.99,"_          Wisconsin Sc-Mn_  24 wl:LWDFSC  24 gf:LWDFSC  24 LWDFSC  24 LWDFSC  19 K09  19 K09  19 K09  25 BPM  44 MFW   hfs:UBDE,PBAG V",- a4F,- z4D*,0.5,1.0,1.0
TiO 1,4875.4983,-0.9059999999999999,0.4485927421634548,54.0,2.9909248526819767,55.0,99.0,99.0,99.0,7.307,0.0,0.0,0.003,_          0.0698990          4 wl:PPN2012   4 gf:PPN2012   4 PPN2012   4 PPN2012   4 PPN2012   4 PPN2012   4 PPN2012   4 PPN2012   4 PPN2012    (50)TiO,"8s2.9s1.3p4.1d1 X,3,2,0,54,2","8s2.11s1.3p4.1d1 C,3,2,0,55,4",0.5,1.0,1.0
V 1,4875.5015,-2.5660000000000003,0.04008523182069306,3.5,2.5823791248302657,2.5,1.24,1.35,1.1,7.16,-5.86,-7.736000000000001,0.99,"_          Wisconsin Sc-Mn_  24 wl:LWDFSC  24 gf:LWDFSC  24 LWDFSC  24 LWDFSC  19 K09  19 K09  19 K09  25 BPM  44 MFW   hfs:UBDE,PBAG V",- a4F,- z4D*,0.5,1.0,1.0
TiO 1,4875.5032,0.545,0.6062629129541665,83.0,3.148589977315851,84.0,99.0,99.0,99.0,7.2829999999999995,0.0,0.0,0.044000000000000004,_          0.0651816          6 wl:PPN2012   6 gf:PPN2012   6 PPN2012   6 PPN2012   6 PPN2012   6 PPN2012   6 PPN2012   6 PPN2012   6 PPN2012    (48)TiO,"8s2.9s1.3p4.1d1 X,3,2,0,84,1","8s2.11s1.3p4.1d1 C,3,2,0,85,3",0.5,1.0,1.0
V 1,4875.5048,-1.923,0.040094513897636665,3.5,2.582386706463941,2.5,1.24,1.35,1.1,7.16,-5.86,-7.736000000000001,0.99,"_          Wisconsin Sc-Mn_  24 wl:LWDFSC  24 gf:LWDFSC  24 LWDFSC  24 LWDFSC  19 K09  19 K09  19 K09  25 BPM  44 MFW   hfs:UBDE,PBAG V",- a4F,- z4D*,0.5,1.0,1.0
V 1,4875.5055,-2.123,0.040087293429928596,3.5,2.5823791248302657,2.5,1.24,1.35,1.1,7.16,-5.86,-7.736000000000001,0.99,"_          Wisconsin Sc-Mn_  24 wl:LWDFSC  24 gf:LWDFSC  24 LWDFSC  24 LWDFSC  19 K09  19 K09  19 K09  25 BPM  44 MFW   hfs:UBDE,PBAG V",- a4F,- z4D*,0.5,1.0,1.0
V 1,4875.5092,-2.596,0.04008420114005949,3.5,2.582374070490472,2.5,1.24,1.35,1.1,7.16,-5.86,-7.736000000000001,0.99,"_          Wisconsin Sc-Mn_  24 wl:LWDFSC  24 gf:LWDFSC  24 LWDFSC  24 LWDFSC  19 K09  19 K09  19 K09  25 BPM  44 MFW   hfs:UBDE,PBAG V",- a4F,- z4D*,0.5,1.0,1.0
V 1,4875.5112,-2.311,0.04008523182069306,3.5,2.582374070490472,2.5,1.24,1.35,1.1,7.16,-5.86,-7.736000000000001,0.99,"_          Wisconsin Sc-Mn_  24 wl:LWDFSC  24 gf:LWDFSC  24 LWDFSC  24 LWDFSC  19 K09  19 K09  19 K09  25 BPM  44 MFW   hfs:UBDE,PBAG V",- a4F,- z4D*,0.5,1.0,1.0
V 1,4875.5114,-2.178,0.04009038695963967,3.5,2.5823791248302657,2.5,1.24,1.35,1.1,7.16,-5.86,-7.736000000000001,0.99,"_          Wisconsin Sc-Mn_  24 wl:LWDFSC  24 gf:LWDFSC  24 LWDFSC  24 LWDFSC  19 K09  19 K09  19 K09  25 BPM  44 MFW   hfs:UBDE,PBAG V",- a4F,- z4D*,0.5,1.0,1.0
V 1,4875.5152,-2.5660000000000003,0.040087293429928596,3.5,2.582374070490472,2.5,1.24,1.35,1.1,7.16,-5.86,-7.736000000000001,0.99,"_          Wisconsin Sc-Mn_  24 wl:LWDFSC  24 gf:LWDFSC  24 LWDFSC  24 LWDFSC  19 K09  19 K09  19 K09  25 BPM  44 MFW   hfs:UBDE,PBAG V",- a4F,- z4D*,0.5,1.0,1.0
TiO 1,4875.5269,-0.6709999999999999,0.5110943167627627,87.0,3.053395530419275,86.0,99.0,99.0,99.0,7.2829999999999995,0.0,0.0,0.004,_          0.0392700          8 wl:PPN2012   8 gf:PPN2012   8 PPN2012   8 PPN2012   8 PPN2012   8 PPN2012   8 PPN2012   8 PPN2012   8 PPN2012    (49)TiO,"8s2.9s1.3p4.1d1 X,3,2,0,87,0","8s2.11s1.3p4.1d1 C,3,2,0,86,2",0.5,1.0,1.0
Tb 2,4875.5282,-3.389,0.12601252897510695,7.0,2.668290603212877,7.0,99.0,99.0,99.0,0.0,0.0,0.0,0.28300000000000003,"E 0.03     Wisconsin REE ex  11 wl:LWCS  11 gf:LWCS  11 LWCS  11 LWCS  11 LWCS  11 LWCS  11 LWCS  11 LWCS  11 LWCS   hfs:DBBK,LWB Tb+",4f9.(6H).6s 5H*,4f8.(7F).5d.6s 4f8.(7F).5d.6s,1.0715193052376064,1.0,2.0
TiO 1,4875.529,0.5820000000000001,1.1658315917686397,117.0,3.707691384486899,116.0,99.0,99.0,99.0,7.236000000000001,0.0,0.0,0.006,_          -0.805159          6 wl:PPN2012   6 gf:PPN2012   6 PPN2012   6 PPN2012   6 PPN2012   6 PPN2012   6 PPN2012   6 PPN2012   6 PPN2012    (48)TiO,"8s2.9s1.3p4.1d1 X,3,2,0,118,2","8s2.11s1.3p4.1d1 C,3,2,0,117,5",0.5,1.0,1.0
Tb 2,4875.5297,-1.743,0.12601331788655545,7.0,2.668290603212877,7.0,99.0,99.0,99.0,0.0,0.0,0.0,0.28300000000000003,"E 0.03     Wisconsin REE ex  11 wl:LWCS  11 gf:LWCS  11 LWCS  11 LWCS  11 LWCS  11 LWCS  11 LWCS  11 LWCS  11 LWCS   hfs:DBBK,LWB Tb+",4f9.(6H).6s 5H*,4f8.(7F).5d.6s 4f8.(7F).5d.6s,1.0715193052376064,1.0,2.0
Ti 1,4875.5306,-2.6060000000000003,3.147751844140953,4.0,5.690030579462465,3.0,1.21,1.23,1.18,8.15,-4.67,-7.32,0.009000000000000001,_          Kurucz TiI 2016   22 wl:K16  22 gf:K16  22 K16  22 K16  22 K16  22 K16  22 K16  22 K16  22 K16    Ti,3d2.(3F).4s.4p.(1P*) y3F*,3d2.4s.(4F).6s h5F,0.5,1.0,1.0
TiO 1,4875.5405,-0.736,0.454359024016235,56.0,2.996631969275724,57.0,99.0,99.0,99.0,7.306,0.0,0.0,0.004,_          -0.00119984        2 wl:PPN2012   2 gf:PPN2012   2 PPN2012   2 PPN2012   2 PPN2012   2 PPN2012   2 PPN2012   2 PPN2012   2 PPN2012    (47)TiO,"8s2.9s1.3p4.1d1 X,3,2,0,55,2","8s2.11s1.3p4.1d1 C,3,2,0,56,4",0.5,1.0,1.0
Cr 1,4875.5515,-1.1520000000000001,5.485873860461242,4.0,8.028141685173376,4.0,0.6,0.9,0.75,8.08,-5.29,-7.55,0.002,_      A   Kurucz Cr I 2016  10 wl:K16  10 gf:K16  10 K16  10 K16  10 K16  10 K16  10 K16  10 K16  10 K16    Cr,3d4.(3H).4s.4p.(3P*) z5I*,3d4.4s.5s e5H,0.5,1.0,1.0
TiO 1,4875.5603,-1.052,0.6581735838276997,51.0,3.200436821124527,52.0,99.0,99.0,99.0,7.327999999999999,0.0,0.0,0.001,_                             6 wl:PPN2012   6 gf:PPN2012   6 PPN2012   6 PPN2012   6 PPN2012   6 PPN2012   6 PPN2012   6 PPN2012   6 PPN2012    (48)TiO,"8s2.9s1.3p4.1d1 X,3,2,-,50,4","8s2.3p4.4p1.1d1 B,3,1,+,51,8",0.5,1.0,1.0
Tb 2,4875.5612,-1.81,0.12601252897510695,7.0,2.668273423714507,7.0,99.0,99.0,99.0,0.0,0.0,0.0,0.28300000000000003,"E 0.03     Wisconsin REE ex  11 wl:LWCS  11 gf:LWCS  11 LWCS  11 LWCS  11 LWCS  11 LWCS  11 LWCS  11 LWCS  11 LWCS   hfs:DBBK,LWB Tb+",4f9.(6H).6s 5H*,4f8.(7F).5d.6s 4f8.(7F).5d.6s,1.0715193052376064,1.0,2.0
Tb 2,4875.5627,-3.389,0.12601331788655545,7.0,2.668273423714507,7.0,99.0,99.0,99.0,0.0,0.0,0.0,0.28300000000000003,"E 0.03     Wisconsin REE ex  11 wl:LWCS  11 gf:LWCS  11 LWCS  11 LWCS  11 LWCS  11 LWCS  11 LWCS  11 LWCS  11 LWCS   hfs:DBBK,LWB Tb+",4f9.(6H).6s 5H*,4f8.(7F).5d.6s 4f8.(7F).5d.6s,1.0715193052376064,1.0,2.0
TiO 1,4875.5667,0.159,1.1595297353780478,93.0,3.7017896127031236,93.0,99.0,99.0,99.0,7.417999999999999,0.0,0.0,0.002,_                             6 wl:PPN2012   6 gf:PPN2012   6 PPN2012   6 PPN2012   6 PPN2012   6 PPN2012   6 PPN2012   6 PPN2012   6 PPN2012    (48)TiO,"8s2.9s1.3p4.1d1 X,3,2,+,92,5","8s2.3p4.4p1.1d1 B,3,1,-,92,8",0.5,1.0,1.0
Tb 2,4875.5667,-3.267,0.1260154134674611,7.0,2.668273423714507,7.0,99.0,99.0,99.0,0.0,0.0,0.0,0.28300000000000003,"E 0.03     Wisconsin REE ex  11 wl:LWCS  11 gf:LWCS  11 LWCS  11 LWCS  11 LWCS  11 LWCS  11 LWCS  11 LWCS  11 LWCS   hfs:DBBK,LWB Tb+",4f9.(6H).6s 5H*,4f8.(7F).5d.6s 4f8.(7F).5d.6s,1.0715193052376064,1.0,2.0
TiO 1,4875.5686,-1.043,0.33647360921966335,37.0,2.8787419670638457,36.0,99.0,99.0,99.0,7.318,0.0,0.0,0.003,_          0.0180128          8 wl:PPN2012   8 gf:PPN2012   8 PPN2012   8 PPN2012   8 PPN2012   8 PPN2012   8 PPN2012   8 PPN2012   8 PPN2012    (49)TiO,"8s2.9s1.3p4.1d1 X,3,2,0,36,2","8s2.11s1.3p4.1d1 C,3,2,0,35,4",0.5,1.0,1.0
TiO 1,4875.5744,0.585,1.1620423247334588,118.0,3.703483732777355,117.0,99.0,99.0,99.0,7.235,0.0,0.0,0.006,_          -1.56257           6 wl:PPN2012   6 gf:PPN2012   6 PPN2012   6 PPN2012   6 PPN2012   6 PPN2012   6 PPN2012   6 PPN2012   6 PPN2012    (48)TiO,"8s2.9s1.3p4.1d1 X,3,2,0,118,2","8s2.11s1.3p4.1d1 C,3,2,0,117,5",0.5,1.0,1.0
TiO 1,4875.5805,-0.248,0.6855547623322121,13.0,3.227807448573835,12.0,99.0,99.0,99.0,7.398,0.0,0.0,0.005,_                             6 wl:PPN2012   6 gf:PPN2012   6 PPN2012   6 PPN2012   6 PPN2012   6 PPN2012   6 PPN2012   6 PPN2012   6 PPN2012    (48)TiO,"8s2.9s1.3p4.1d1 a,1,2,0,13,2","8s2.11s1.3p4.1d1 f,1,2,0,12,4",0.5,1.0,1.0
TiO 1,4875.5844,-0.96,0.6408362907697237,63.0,3.183086968467347,63.0,99.0,99.0,99.0,7.289,0.0,0.0,0.001,_                             6 wl:PPN2012   6 gf:PPN2012   6 PPN2012   6 PPN2012   6 PPN2012   6 PPN2012   6 PPN2012   6 PPN2012   6 PPN2012    (48)TiO,"8s2.9s1.3p4.1d1 X,3,2,+,63,3","8s2.3p4.4p1.1d1 B,3,1,-,63,7",0.5,1.0,1.0
Tb 2,4875.5853,-3.267,0.12601252897510695,7.0,2.6682608648592083,7.0,99.0,99.0,99.0,0.0,0.0,0.0,0.28300000000000003,"E 0.03     Wisconsin REE ex  11 wl:LWCS  11 gf:LWCS  11 LWCS  11 LWCS  11 LWCS  11 LWCS  11 LWCS  11 LWCS  11 LWCS   hfs:DBBK,LWB Tb+",4f9.(6H).6s 5H*,4f8.(7F).5d.6s 4f8.(7F).5d.6s,1.0715193052376064,1.0,2.0
Tb 2,4875.5908,-1.8719999999999999,0.1260154134674611,7.0,2.6682608648592083,7.0,99.0,99.0,99.0,0.0,0.0,0.0,0.28300000000000003,"E 0.03     Wisconsin REE ex  11 wl:LWCS  11 gf:LWCS  11 LWCS  11 LWCS  11 LWCS  11 LWCS  11 LWCS  11 LWCS  11 LWCS   hfs:DBBK,LWB Tb+",4f9.(6H).6s 5H*,4f8.(7F).5d.6s 4f8.(7F).5d.6s,1.0715193052376064,1.0,2.0
TiO 1,4875.5921,-0.602,0.7139118452518516,105.0,3.2561111810933028,106.0,99.0,99.0,99.0,7.257999999999999,0.0,0.0,0.002,_          -0.0908384         4 wl:PPN2012   4 gf:PPN2012   4 PPN2012   4 PPN2012   4 PPN2012   4 PPN2012   4 PPN2012   4 PPN2012   4 PPN2012    (50)TiO,"8s2.9s1.3p4.1d1 X,3,2,0,104,0","8s2.11s1.3p4.1d1 C,3,2,0,105,2",0.5,1.0,1.0
Tb 2,4875.6008,-3.391,0.1260206286147593,7.0,2.6682608648592083,7.0,99.0,99.0,99.0,0.0,0.0,0.0,0.28300000000000003,"E 0.03     Wisconsin REE ex  11 wl:LWCS  11 gf:LWCS  11 LWCS  11 LWCS  11 LWCS  11 LWCS  11 LWCS  11 LWCS  11 LWCS   hfs:DBBK,LWB Tb+",4f9.(6H).6s 5H*,4f8.(7F).5d.6s 4f8.(7F).5d.6s,1.0715193052376064,1.0,2.0
TiO 1,4875.6033,-0.889,0.7239877930118539,51.0,3.2662286635594575,50.0,99.0,99.0,99.0,7.394,0.0,0.0,0.001,_                             8 wl:PPN2012   8 gf:PPN2012   8 PPN2012   8 PPN2012   8 PPN2012   8 PPN2012   8 PPN2012   8 PPN2012   8 PPN2012    (49)TiO,"8s2.9s1.3p4.1d1 a,1,2,0,51,1","8s2.11s1.3p4.1d1 f,1,2,0,50,3",0.5,1.0,1.0
TiO 1,4875.6065,0.253,0.45887609068898516,55.0,3.001154664831039,56.0,99.0,99.0,99.0,7.307,0.0,0.0,0.04,_          0.0755430          6 wl:PPN2012   6 gf:PPN2012   6 PPN2012   6 PPN2012   6 PPN2012   6 PPN2012   6 PPN2012   6 PPN2012   6 PPN2012    (48)TiO,"8s2.9s1.3p4.1d1 X,3,2,0,55,2","8s2.11s1.3p4.1d1 C,3,2,0,56,4",0.5,1.0,1.0
Tb 2,4875.6079,-3.391,0.1260154134674611,7.0,2.668251951883221,7.0,99.0,99.0,99.0,0.0,0.0,0.0,0.28300000000000003,"E 0.03     Wisconsin REE ex  11 wl:LWCS  11 gf:LWCS  11 LWCS  11 LWCS  11 LWCS  11 LWCS  11 LWCS  11 LWCS  11 LWCS   hfs:DBBK,LWB Tb+",4f9.(6H).6s 5H*,4f8.(7F).5d.6s 4f8.(7F).5d.6s,1.0715193052376064,1.0,2.0
TiO 1,4875.6099,-0.894,0.34359859669725934,38.0,2.8858476254050567,37.0,99.0,99.0,99.0,7.318,0.0,0.0,0.005,_          0.0222144          2 wl:PPN2012   2 gf:PPN2012   2 PPN2012   2 PPN2012   2 PPN2012   2 PPN2012   2 PPN2012   2 PPN2012   2 PPN2012    (47)TiO,"8s2.9s1.3p4.1d1 X,3,2,0,37,2","8s2.11s1.3p4.1d1 C,3,2,0,36,4",0.5,1.0,1.0
Tb 2,4875.6179,-1.9240000000000002,0.1260206286147593,7.0,2.668251951883221,7.0,99.0,99.0,99.0,0.0,0.0,0.0,0.28300000000000003,"E 0.03     Wisconsin REE ex  11 wl:LWCS  11 gf:LWCS  11 LWCS  11 LWCS  11 LWCS  11 LWCS  11 LWCS  11 LWCS  11 LWCS   hfs:DBBK,LWB Tb+",4f9.(6H).6s 5H*,4f8.(7F).5d.6s 4f8.(7F).5d.6s,1.0715193052376064,1.0,2.0
TiO 1,4875.6335,-0.8740000000000001,0.35998643116942886,36.0,2.9022093240083993,35.0,99.0,99.0,99.0,7.318,0.0,0.0,0.004,_          -0.00425324        3 wl:PPN2012   3 gf:PPN2012   3 PPN2012   3 PPN2012   3 PPN2012   3 PPN2012   3 PPN2012   3 PPN2012   3 PPN2012    (46)TiO,"8s2.9s1.3p4.1d1 X,3,2,0,37,2","8s2.11s1.3p4.1d1 C,3,2,0,36,4",0.5,1.0,1.0
TiO 1,4875.6453,-0.6940000000000001,0.513498345554869,86.0,3.055777018884281,85.0,99.0,99.0,99.0,7.284,0.0,0.0,0.004,_          0.114488           4 wl:PPN2012   4 gf:PPN2012   4 PPN2012   4 PPN2012   4 PPN2012   4 PPN2012   4 PPN2012   4 PPN2012   4 PPN2012    (50)TiO,"8s2.9s1.3p4.1d1 X,3,2,0,87,0","8s2.11s1.3p4.1d1 C,3,2,0,86,2",0.5,1.0,1.0
TiO 1,4875.6514,-0.747,0.7771399548499146,39.0,3.3193557681912096,40.0,99.0,99.0,99.0,7.391,0.0,0.0,0.001,_                             2 wl:PPN2012   2 gf:PPN2012   2 PPN2012   2 PPN2012   2 PPN2012   2 PPN2012   2 PPN2012   2 PPN2012   2 PPN2012    (47)TiO,"8s2.9s1.3p4.1d1 a,1,2,0,39,2","8s2.11s1.3p4.1d1 f,1,2,0,40,4",0.5,1.0,1.0
TiO 1,4875.6731,0.172,1.2060376088705238,84.0,3.7482420280640714,84.0,99.0,99.0,99.0,7.487,0.0,0.0,0.002,_                             6 wl:PPN2012   6 gf:PPN2012   6 PPN2012   6 PPN2012   6 PPN2012   6 PPN2012   6 PPN2012   6 PPN2012   6 PPN2012    (48)TiO,"8s2.9s1.3p4.1d1 X,3,2,+,85,6","8s2.3p4.4p1.1d1 B,3,1,-,85,9",0.5,1.0,1.0
TiO 1,4875.6755,0.066,0.35297483963883897,35.0,2.895174584628142,34.0,99.0,99.0,99.0,7.319,0.0,0.0,0.039,_          -0.00668299        6 wl:PPN2012   6 gf:PPN2012   6 PPN2012   6 PPN2012   6 PPN2012   6 PPN2012   6 PPN2012   6 PPN2012   6 PPN2012    (48)TiO,"8s2.9s1.3p4.1d1 X,3,2,0,36,2","8s2.11s1.3p4.1d1 C,3,2,0,35,4",0.5,1.0,1.0
TiO 1,4875.6818,-1.099,0.34636084063269634,34.0,2.888555936214594,33.0,99.0,99.0,99.0,7.319,0.0,0.0,0.003,_          -0.00920971        4 wl:PPN2012   4 gf:PPN2012   4 PPN2012   4 PPN2012   4 PPN2012   4 PPN2012   4 PPN2012   4 PPN2012   4 PPN2012    (50)TiO,"8s2.9s1.3p4.1d1 X,3,2,0,35,2","8s2.11s1.3p4.1d1 C,3,2,0,34,4",0.5,1.0,1.0
TiO 1,4875.6862,-0.691,0.46970433736397693,56.0,3.0119441416474824,57.0,99.0,99.0,99.0,7.306,0.0,0.0,0.004,_          0.0809990          3 wl:PPN2012   3 gf:PPN2012   3 PPN2012   3 PPN2012   3 PPN2012   3 PPN2012   3 PPN2012   3 PPN2012   3 PPN2012    (46)TiO,"8s2.9s1.3p4.1d1 X,3,2,0,56,2","8s2.11s1.3p4.1d1 C,3,2,0,57,4",0.5,1.0,1.0
TiO 1,4875.6908,0.512,1.573198410423401,91.0,4.115393580395817,90.0,99.0,99.0,99.0,7.337000000000001,0.0,0.0,0.001,_                             6 wl:PPN2012   6 gf:PPN2012   6 PPN2012   6 PPN2012   6 PPN2012   6 PPN2012   6 PPN2012   6 PPN2012   6 PPN2012    (48)TiO,"8s2.9s1.3p4.1d1 a,1,2,0,91,5","8s2.11s1.3p4.1d1 f,1,2,0,90,8",0.5,1.0,1.0
Nd 1,4875.714,-0.71,0.2934206297802108,6.0,2.835603649301275,6.0,1.07,1.16,1.12,0.0,0.0,0.0,0.055999999999999994,_          La1 to Lu 2 Bell   1 wl:MC   1 gf:MC   1 MC   1 MC   1 MC   1 MC   1 MC   1 MC   1 MC    Nd,4f4.6s2 5I,* *,0.5,1.0,1.0
Ni 1,4875.7158,-3.193,4.235707597652434,2.0,6.777889736885696,2.0,1.19,1.37,1.28,8.19,-3.96,-7.27,0.006,_          Kurucz NiI 2008   33 iso:K08  33 gf:K08  33 K08  33 K08  33 K08  33 K08  33 K08  33 K08  33 K08    (60)Ni,3d8.(3F).4s.4p.(3P*) y3F*,3d9.(2D<5/2>).5d 2[3/2],0.5,1.0,1.0
Fe 1,4875.7172,-2.6830000000000003,4.593110396521301,4.0,7.135291804247798,4.0,1.25,1.24,1.24,8.01,-6.06,-7.75,0.095,_          Kurucz Fe I 2014   5 wl:K14   5 gf:K14   5 K14   5 K14   5 K14   5 K14   5 K14   5 K14   5 K14    Fe,3d7.(2F).4s d3F,3d6.(3D).4s.4p.(3P*) t3F*,0.5,1.0,1.0
TiO 1,4875.7186,-0.7020000000000001,0.4212943603060128,66.0,2.9635547211694586,65.0,99.0,99.0,99.0,7.3020000000000005,0.0,0.0,0.005,_          0.152697           4 wl:PPN2012   4 gf:PPN2012   4 PPN2012   4 PPN2012   4 PPN2012   4 PPN2012   4 PPN2012   4 PPN2012   4 PPN2012    (50)TiO,"8s2.9s1.3p4.1d1 X,3,2,0,66,1","8s2.11s1.3p4.1d1 C,3,2,0,65,3",0.5,1.0,1.0
Ni 1,4875.7336,-2.779,4.2357032210102625,2.0,6.777876086225554,2.0,1.19,1.37,1.28,8.19,-3.96,-7.27,0.016,_          Kurucz NiI 2008   33 iso:K08  33 gf:K08  33 K08  33 K08  33 K08  33 K08  33 K08  33 K08  33 K08    (58)Ni,3d8.(3F).4s.4p.(3P*) y3F*,3d9.(2D<5/2>).5d 2[3/2],0.5,1.0,1.0
TiO 1,4875.7592,-1.078,0.614828621603205,72.0,3.156988170915688,72.0,99.0,99.0,99.0,7.257999999999999,0.0,0.0,0.001,_                             6 wl:PPN2012   6 gf:PPN2012   6 PPN2012   6 PPN2012   6 PPN2012   6 PPN2012   6 PPN2012   6 PPN2012   6 PPN2012    (48)TiO,"8s2.9s1.3p4.1d1 X,3,2,-,73,2","8s2.3p4.4p1.1d1 B,3,1,+,73,6",0.5,1.0,1.0
TiO 1,4875.76,0.547,0.742860704746016,104.0,3.285147288267227,105.0,99.0,99.0,99.0,7.2589999999999995,0.0,0.0,0.027000000000000003,_          0.244504           6 wl:PPN2012   6 gf:PPN2012   6 PPN2012   6 PPN2012   6 PPN2012   6 PPN2012   6 PPN2012   6 PPN2012   6 PPN2012    (48)TiO,"8s2.9s1.3p4.1d1 X,3,2,0,105,0","8s2.11s1.3p4.1d1 C,3,2,0,106,2",0.5,1.0,1.0
CH 1,4875.761,-2.8710000000000004,0.4583468889389234,8.5,3.0005057315414807,8.5,99.0,99.0,99.0,6.27,0.0,0.0,0.012,_                            37 wl:JLIY  37 gf:JLIY  37 JLIY  37 JLIY  37 JLIY  37 JLIY  37 JLIY  37 JLIY  37 JLIY    (12)CH,"1s2.2s2.3s2.1p1 X,2,1,e,8,1","1s2.2s2.3s1.1p2 A,2,2,f,8,0",0.5,1.0,1.0
TiO 1,4875.7647,-0.48200000000000004,0.5143362431597919,88.0,3.0564774056157895,87.0,99.0,99.0,99.0,7.282,0.0,0.0,0.006,_          -0.0298065         3 wl:PPN2012   3 gf:PPN2012   3 PPN2012   3 PPN2012   3 PPN2012   3 PPN2012   3 PPN2012   3 PPN2012   3 PPN2012    (46)TiO,"8s2.9s1.3p4.1d1 X,3,2,0,87,0","8s2.11s1.3p4.1d1 C,3,2,0,86,2",0.5,1.0,1.0