species,wlcent,gflog,excit,j_lo,e_upp,j_up,lande_lower,lande_upper,lande,gamrad,gamqst,gamvw,depth,reference,term_lower,term_upper,error,atom_number,ionization
V 1,4731.5405,-3.2969999999999997,1.930679306814271,2.5,4.5503234313767305,2.5,1.54,1.13,1.34,7.37,-6.12,-7.77,0.14,"_          Kurucz V I 2009   19 wl:K09  19 gf:K09  19 K09  19 K09  19 K09  19 K09  19 K09  19 K09  19 K09   hfs:UBDE,GEOB V",3d4.(3P2).4s b4P,3d3.(4P).4s.4p.(3P*) x2D*,0.5,1.0,1.0
V 1,4731.5409,-3.0210000000000004,2.1222272241029243,3.5,4.741871119790556,3.5,0.96,0.67,0.82,8.13,-6.06,-7.76,0.193,"_          Kurucz V I 2009   19 wl:K09  19 gf:K09  19 K09  19 K09  19 K09  19 K09  19 K09  19 K09  19 K09   hfs:UBDE,GYDE V",3d4.(3G).4s a4G,3d4.(3H).4p x4H*,0.5,1.0,1.0
V 1,4731.5413,-3.477,2.122215813341295,3.5,4.7418595068107,3.5,0.96,0.67,0.82,8.13,-6.06,-7.76,0.193,"_          Kurucz V I 2009   19 wl:K09  19 gf:K09  19 K09  19 K09  19 K09  19 K09  19 K09  19 K09  19 K09   hfs:UBDE,GYDE V",3d4.(3G).4s a4G,3d4.(3H).4p x4H*,0.5,1.0,1.0
V 1,4731.542,-3.352,2.122222659376727,3.5,4.7418659584524,3.5,0.96,0.67,0.82,8.13,-6.06,-7.76,0.193,"_          Kurucz V I 2009   19 wl:K09  19 gf:K09  19 K09  19 K09  19 K09  19 K09  19 K09  19 K09  19 K09   hfs:UBDE,GYDE V",3d4.(3G).4s a4G,3d4.(3H).4p x4H*,0.5,1.0,1.0
V 1,4731.5428,-3.799,2.1222192361730343,3.5,4.741862087417785,3.5,0.96,0.67,0.82,8.13,-6.06,-7.76,0.193,"_          Kurucz V I 2009   19 wl:K09  19 gf:K09  19 K09  19 K09  19 K09  19 K09  19 K09  19 K09  19 K09   hfs:UBDE,GYDE V",3d4.(3G).4s a4G,3d4.(3H).4p x4H*,0.5,1.0,1.0
V 1,4731.5434,-4.498,2.1222169542438802,3.5,4.7418595068107,3.5,0.96,0.67,0.82,8.13,-6.06,-7.76,0.193,"_          Kurucz V I 2009   19 wl:K09  19 gf:K09  19 K09  19 K09  19 K09  19 K09  19 K09  19 K09  19 K09   hfs:UBDE,GYDE V",3d4.(3G).4s a4G,3d4.(3H).4p x4H*,0.5,1.0,1.0
V 1,4731.5435,-3.33,1.9306680409901675,2.5,4.5503105280933305,2.5,1.54,1.13,1.34,7.37,-6.12,-7.77,0.14,"_          Kurucz V I 2009   19 wl:K09  19 gf:K09  19 K09  19 K09  19 K09  19 K09  19 K09  19 K09  19 K09   hfs:UBDE,GEOB V",3d4.(3P2).4s b4P,3d3.(4P).4s.4p.(3P*) x2D*,0.5,1.0,1.0
V 1,4731.5457,-3.477,2.1222169542438802,3.5,4.741858216507157,3.5,0.96,0.67,0.82,8.13,-6.06,-7.76,0.193,"_          Kurucz V I 2009   19 wl:K09  19 gf:K09  19 K09  19 K09  19 K09  19 K09  19 K09  19 K09  19 K09   hfs:UBDE,GYDE V",3d4.(3G).4s a4G,3d4.(3H).4p x4H*,0.5,1.0,1.0
V 1,4731.5475,-3.197,2.1222192361730343,3.5,4.7418595068107,3.5,0.96,0.67,0.82,8.13,-6.06,-7.76,0.193,"_          Kurucz V I 2009   19 wl:K09  19 gf:K09  19 K09  19 K09  19 K09  19 K09  19 K09  19 K09  19 K09   hfs:UBDE,GYDE V",3d4.(3G).4s a4G,3d4.(3H).4p x4H*,0.5,1.0,1.0
V 1,4731.549,-3.0589999999999997,2.122222659376727,3.5,4.741862087417785,3.5,0.96,0.67,0.82,8.13,-6.06,-7.76,0.193,"_          Kurucz V I 2009   19 wl:K09  19 gf:K09  19 K09  19 K09  19 K09  19 K09  19 K09  19 K09  19 K09   hfs:UBDE,GYDE V",3d4.(3G).4s a4G,3d4.(3H).4p x4H*,0.5,1.0,1.0
V 1,4731.5502,-3.477,1.930679306814271,2.5,4.550318055049975,2.5,1.54,1.13,1.34,7.37,-6.12,-7.77,0.14,"_          Kurucz V I 2009   19 wl:K09  19 gf:K09  19 K09  19 K09  19 K09  19 K09  19 K09  19 K09  19 K09   hfs:UBDE,GEOB V",3d4.(3P2).4s b4P,3d3.(4P).4s.4p.(3P*) x2D*,0.5,1.0,1.0
V 1,4731.5503,-2.9930000000000003,2.1222272241029243,3.5,4.7418659584524,3.5,0.96,0.67,0.82,8.13,-6.06,-7.76,0.193,"_          Kurucz V I 2009   19 wl:K09  19 gf:K09  19 K09  19 K09  19 K09  19 K09  19 K09  19 K09  19 K09   hfs:UBDE,GYDE V",3d4.(3G).4s a4G,3d4.(3H).4p x4H*,0.5,1.0,1.0
V 1,4731.5513,-2.986,2.1222329309715504,3.5,4.741871119790556,3.5,0.96,0.67,0.82,8.13,-6.06,-7.76,0.193,"_          Kurucz V I 2009   19 wl:K09  19 gf:K09  19 K09  19 K09  19 K09  19 K09  19 K09  19 K09  19 K09   hfs:UBDE,GYDE V",3d4.(3G).4s a4G,3d4.(3H).4p x4H*,0.5,1.0,1.0
V 1,4731.552,-3.051,2.122239780354555,3.5,4.741877571432256,3.5,0.96,0.67,0.82,8.13,-6.06,-7.76,0.193,"_          Kurucz V I 2009   19 wl:K09  19 gf:K09  19 K09  19 K09  19 K09  19 K09  19 K09  19 K09  19 K09   hfs:UBDE,GYDE V",3d4.(3G).4s a4G,3d4.(3H).4p x4H*,0.5,1.0,1.0
V 1,4731.5524,-3.255,2.122247772871861,3.5,4.741885313377498,3.5,0.96,0.67,0.82,8.13,-6.06,-7.76,0.193,"_          Kurucz V I 2009   19 wl:K09  19 gf:K09  19 K09  19 K09  19 K09  19 K09  19 K09  19 K09  19 K09   hfs:UBDE,GYDE V",3d4.(3G).4s a4G,3d4.(3H).4p x4H*,0.5,1.0,1.0
TiO 1,4731.5543,-1.214,0.4353487005960168,26.0,3.055153254386809,25.0,99.0,99.0,99.0,7.315,0.0,0.0,0.001,_          0.303372           4 wl:PPN2012   4 gf:PPN2012   4 PPN2012   4 PPN2012   4 PPN2012   4 PPN2012   4 PPN2012   4 PPN2012   4 PPN2012    (50)TiO,"8s2.9s1.3p4.1d1 X,3,2,0,27,3","8s2.11s1.3p4.1d1 C,3,2,0,26,6",0.5,1.0,1.0
V 1,4731.5543,-3.478,1.93069338807153,2.5,4.55032988301843,2.5,1.54,1.13,1.34,7.37,-6.12,-7.77,0.14,"_          Kurucz V I 2009   19 wl:K09  19 gf:K09  19 K09  19 K09  19 K09  19 K09  19 K09  19 K09  19 K09   hfs:UBDE,GEOB V",3d4.(3P2).4s b4P,3d3.(4P).4s.4p.(3P*) x2D*,0.5,1.0,1.0
V 1,4731.558,-3.266,1.930679306814271,2.5,4.550313753914181,2.5,1.54,1.13,1.34,7.37,-6.12,-7.77,0.14,"_          Kurucz V I 2009   19 wl:K09  19 gf:K09  19 K09  19 K09  19 K09  19 K09  19 K09  19 K09  19 K09   hfs:UBDE,GEOB V",3d4.(3P2).4s b4P,3d3.(4P).4s.4p.(3P*) x2D*,0.5,1.0,1.0
TiO 1,4731.5596,-0.836,0.6845102202653659,102.0,3.30411129119127,101.0,99.0,99.0,99.0,7.263,0.0,0.0,0.001,_          -0.0588133         2 wl:PPN2012   2 gf:PPN2012   2 PPN2012   2 PPN2012   2 PPN2012   2 PPN2012   2 PPN2012   2 PPN2012   2 PPN2012    (47)TiO,"8s2.9s1.3p4.1d1 X,3,2,0,101,0","8s2.11s1.3p4.1d1 C,3,2,0,100,3",0.5,1.0,1.0
V 1,4731.566,-3.071,1.93069338807153,2.5,4.5503234313767305,2.5,1.54,1.13,1.34,7.37,-6.12,-7.77,0.14,"_          Kurucz V I 2009   19 wl:K09  19 gf:K09  19 K09  19 K09  19 K09  19 K09  19 K09  19 K09  19 K09   hfs:UBDE,GEOB V",3d4.(3P2).4s b4P,3d3.(4P).4s.4p.(3P*) x2D*,0.5,1.0,1.0
TiO 1,4731.5688,-0.7979999999999999,0.5110219471866994,64.0,3.128793792458388,63.0,99.0,99.0,99.0,7.2989999999999995,0.0,0.0,0.003,_          -3.35603           4 wl:PPN2012   4 gf:PPN2012   4 PPN2012   4 PPN2012   4 PPN2012   4 PPN2012   4 PPN2012   4 PPN2012   4 PPN2012    (50)TiO,"8s2.9s1.3p4.1d1 X,3,2,0,63,2","8s2.11s1.3p4.1d1 C,3,2,0,62,5",0.5,1.0,1.0
V 1,4731.5757,-3.2969999999999997,1.93069338807153,2.5,4.550318055049975,2.5,1.54,1.13,1.34,7.37,-6.12,-7.77,0.14,"_          Kurucz V I 2009   19 wl:K09  19 gf:K09  19 K09  19 K09  19 K09  19 K09  19 K09  19 K09  19 K09   hfs:UBDE,GEOB V",3d4.(3P2).4s b4P,3d3.(4P).4s.4p.(3P*) x2D*,0.5,1.0,1.0
V 1,4731.5848,-2.779,1.9307102842660089,2.5,4.55032988301843,2.5,1.54,1.13,1.34,7.37,-6.12,-7.77,0.14,"_          Kurucz V I 2009   19 wl:K09  19 gf:K09  19 K09  19 K09  19 K09  19 K09  19 K09  19 K09  19 K09   hfs:UBDE,GEOB V",3d4.(3P2).4s b4P,3d3.(4P).4s.4p.(3P*) x2D*,0.5,1.0,1.0
Er 2,4731.588,-0.27,1.9506330881091218,8.5,4.5702510580811415,8.5,1.21,1.25,1.23,0.0,0.0,0.0,0.05,_          La1 to Lu 2 Bell   1 wl:MC   1 gf:MC   1 MC   1 MC   1 MC   1 MC   1 MC   1 MC   1 MC    Er+,4f11.(4I*).5d.6s *,"4f11.(4I*<15/2>).6s.6p.(3P*<2>) (15/2,2)",0.5,1.0,2.0
U 2,4731.594,-0.902,0.5685213545422355,6.5,3.188135728972528,6.5,0.79,1.01,0.9,0.0,0.0,0.0,0.022000000000000002,E0.072     Lund exp.          7 wl:NIJL   7 gf:NIJL   7 NIJL   7 NIJL   7 NIJL   7 NIJL   7 NIJL   7 NIJL   7 NIJL    U+,5f3.(4I).6d2.(3F) 6M*, ,1.1803206356517297,1.0,2.0
TiO 1,4731.5962,-0.674,0.7930350637229182,99.0,3.412513898628536,100.0,99.0,99.0,99.0,7.2620000000000005,0.0,0.0,0.001,_          -0.242941          8 wl:PPN2012   8 gf:PPN2012   8 PPN2012   8 PPN2012   8 PPN2012   8 PPN2012   8 PPN2012   8 PPN2012   8 PPN2012    (49)TiO,"8s2.9s1.3p4.1d1 X,3,2,0,100,1","8s2.11s1.3p4.1d1 C,3,2,0,101,4",0.5,1.0,1.0
V 1,4731.5965,-3.478,1.9307102842660089,2.5,4.5503234313767305,2.5,1.54,1.13,1.34,7.37,-6.12,-7.77,0.14,"_          Kurucz V I 2009   19 wl:K09  19 gf:K09  19 K09  19 K09  19 K09  19 K09  19 K09  19 K09  19 K09   hfs:UBDE,GEOB V",3d4.(3P2).4s b4P,3d3.(4P).4s.4p.(3P*) x2D*,0.5,1.0,1.0
TiO 1,4731.624,-0.971,0.5109511522099439,45.0,3.130371243402801,46.0,99.0,99.0,99.0,7.306,0.0,0.0,0.002,_          -0.321322          4 wl:PPN2012   4 gf:PPN2012   4 PPN2012   4 PPN2012   4 PPN2012   4 PPN2012   4 PPN2012   4 PPN2012   4 PPN2012    (50)TiO,"8s2.9s1.3p4.1d1 X,3,2,0,45,3","8s2.11s1.3p4.1d1 C,3,2,0,46,6",0.5,1.0,1.0
TiO 1,4731.6293,-0.9470000000000001,0.4307773040479353,30.0,3.051014165938466,29.0,99.0,99.0,99.0,7.314,0.0,0.0,0.003,_          1.15903            3 wl:PPN2012   3 gf:PPN2012   3 PPN2012   3 PPN2012   3 PPN2012   3 PPN2012   3 PPN2012   3 PPN2012   3 PPN2012    (46)TiO,"8s2.9s1.3p4.1d1 X,3,2,0,29,3","8s2.11s1.3p4.1d1 C,3,2,0,28,6",0.5,1.0,1.0
TiO 1,4731.6491,-0.9790000000000001,0.44548961607549353,31.0,3.0648242697578736,30.0,99.0,99.0,99.0,7.314,0.0,0.0,0.002,_          -0.450607          2 wl:PPN2012   2 gf:PPN2012   2 PPN2012   2 PPN2012   2 PPN2012   2 PPN2012   2 PPN2012   2 PPN2012   2 PPN2012    (47)TiO,"8s2.9s1.3p4.1d1 X,3,2,0,31,3","8s2.11s1.3p4.1d1 C,3,2,0,30,6",0.5,1.0,1.0
Ti 1,4731.6646,-2.8489999999999998,2.505652067610071,2.0,5.1252275110023575,2.0,1.01,0.66,0.84,7.88,-5.72,-7.72,0.045,_          Kurucz TiI 2016   22 wl:K16  22 gf:K16  22 K16  22 K16  22 K16  22 K16  22 K16  22 K16  22 K16    Ti,3d3.(2D2).4s b1D,3d.4s2.4p s3F*,0.5,1.0,1.0
C2 1,4731.6766,-0.509,0.2874553780873305,33.0,2.906966597665328,32.0,99.0,99.0,99.0,6.77,0.0,0.0,0.009000000000000001,_                             9 wl:BBSB   9 gf:BBSB   9 BBSB   9 BBSB   9 BBSB   9 BBSB   9 BBSB   9 BBSB   9 BBSB    (12)C(12)C,"2sg2.2su2.3sg1.1pu3 a,3,1,e,32,0,g","2sg2.2su1.3sg1.1pu3/2sg2.2su2.3sg1.1pg1.1pu2 d,3,1,e,31,1,g",0.5,1.0,1.0
TiO 1,4731.6853,-0.753,0.5429035164894024,47.0,3.1626378828260067,48.0,99.0,99.0,99.0,7.305,0.0,0.0,0.003,_          0.307775           3 wl:PPN2012   3 gf:PPN2012   3 PPN2012   3 PPN2012   3 PPN2012   3 PPN2012   3 PPN2012   3 PPN2012   3 PPN2012    (46)TiO,"8s2.9s1.3p4.1d1 X,3,2,0,48,3","8s2.11s1.3p4.1d1 C,3,2,0,49,6",0.5,1.0,1.0
TiO 1,4731.6931,-0.9520000000000001,0.49973118986146503,45.0,3.1197348870702335,46.0,99.0,99.0,99.0,7.306,0.0,0.0,0.002,_          0.801944           8 wl:PPN2012   8 gf:PPN2012   8 PPN2012   8 PPN2012   8 PPN2012   8 PPN2012   8 PPN2012   8 PPN2012   8 PPN2012    (49)TiO,"8s2.9s1.3p4.1d1 X,3,2,0,44,3","8s2.11s1.3p4.1d1 C,3,2,0,45,6",0.5,1.0,1.0
TiO 1,4731.6939,-0.557,0.9028077957295876,91.0,3.522366997192006,91.0,99.0,99.0,99.0,7.331,0.0,0.0,0.001,_                             6 wl:PPN2012   6 gf:PPN2012   6 PPN2012   6 PPN2012   6 PPN2012   6 PPN2012   6 PPN2012   6 PPN2012   6 PPN2012    (48)TiO,"8s2.9s1.3p4.1d1 X,3,2,-,90,3","8s2.3p4.4p1.1d1 B,3,1,+,90,7",0.5,1.0,1.0
TiO 1,4731.6952,-0.807,0.5349155865989944,46.0,3.154646357393872,47.0,99.0,99.0,99.0,7.305,0.0,0.0,0.002,_          0.311165           2 wl:PPN2012   2 gf:PPN2012   2 PPN2012   2 PPN2012   2 PPN2012   2 PPN2012   2 PPN2012   2 PPN2012   2 PPN2012    (47)TiO,"8s2.9s1.3p4.1d1 X,3,2,0,47,3","8s2.11s1.3p4.1d1 C,3,2,0,48,6",0.5,1.0,1.0
TiO 1,4731.698,0.475,1.2192476911662746,123.0,3.8434587921161922,122.0,99.0,99.0,99.0,7.225,0.0,0.0,0.004,_          8.39202            6 wl:PPN2012   6 gf:PPN2012   6 PPN2012   6 PPN2012   6 PPN2012   6 PPN2012   6 PPN2012   6 PPN2012   6 PPN2012    (48)TiO,"8s2.9s1.3p4.1d1 X,3,2,0,122,2","8s2.11s1.3p4.1d1 C,3,2,0,121,6",0.5,1.0,1.0
TiO 1,4731.7026,0.18100000000000002,0.5271992812884042,45.0,3.146927597196172,46.0,99.0,99.0,99.0,7.306,0.0,0.0,0.026000000000000002,_          0.313994           6 wl:PPN2012   6 gf:PPN2012   6 PPN2012   6 PPN2012   6 PPN2012   6 PPN2012   6 PPN2012   6 PPN2012   6 PPN2012    (48)TiO,"8s2.9s1.3p4.1d1 X,3,2,0,46,3","8s2.11s1.3p4.1d1 C,3,2,0,47,6",0.5,1.0,1.0
TiO 1,4731.7148,-0.963,0.5197335108456417,44.0,3.1394563094566217,45.0,99.0,99.0,99.0,7.307,0.0,0.0,0.002,_          0.316295           8 wl:PPN2012   8 gf:PPN2012   8 PPN2012   8 PPN2012   8 PPN2012   8 PPN2012   8 PPN2012   8 PPN2012   8 PPN2012    (49)TiO,"8s2.9s1.3p4.1d1 X,3,2,0,45,3","8s2.11s1.3p4.1d1 C,3,2,0,46,6",0.5,1.0,1.0
TiO 1,4731.7243,-0.7120000000000001,0.6532557134397878,78.0,3.272708573656036,79.0,99.0,99.0,99.0,7.284,0.0,0.0,0.002,_          -0.161818          4 wl:PPN2012   4 gf:PPN2012   4 PPN2012   4 PPN2012   4 PPN2012   4 PPN2012   4 PPN2012   4 PPN2012   4 PPN2012    (50)TiO,"8s2.9s1.3p4.1d1 X,3,2,0,78,2","8s2.11s1.3p4.1d1 C,3,2,0,79,5",0.5,1.0,1.0
C2 1,4731.7258,-0.522,0.28768487283684774,32.0,2.9071776187694223,31.0,99.0,99.0,99.0,6.77,0.0,0.0,0.009000000000000001,_                             9 wl:BBSB   9 gf:BBSB   9 BBSB   9 BBSB   9 BBSB   9 BBSB   9 BBSB   9 BBSB   9 BBSB    (12)C(12)C,"2sg2.2su2.3sg1.1pu3 a,3,1,f,32,0,g","2sg2.2su1.3sg1.1pu3/2sg2.2su2.3sg1.1pg1.1pu2 d,3,1,f,31,1,g",0.5,1.0,1.0
TiO 1,4731.7262,-0.99,0.512519552307941,43.0,3.132237081590529,44.0,99.0,99.0,99.0,7.307,0.0,0.0,0.002,_          0.318100           4 wl:PPN2012   4 gf:PPN2012   4 PPN2012   4 PPN2012   4 PPN2012   4 PPN2012   4 PPN2012   4 PPN2012   4 PPN2012    (50)TiO,"8s2.9s1.3p4.1d1 X,3,2,0,44,3","8s2.11s1.3p4.1d1 C,3,2,0,45,6",0.5,1.0,1.0
TiO 1,4731.7356,-0.66,0.7135890275968986,85.0,3.3269803003988323,86.0,99.0,99.0,99.0,7.277,0.0,0.0,0.002,_          -11.1259           8 wl:PPN2012   8 gf:PPN2012   8 PPN2012   8 PPN2012   8 PPN2012   8 PPN2012   8 PPN2012   8 PPN2012   8 PPN2012    (49)TiO,"8s2.9s1.3p4.1d1 X,3,2,0,84,2","8s2.11s1.3p4.1d1 C,3,2,0,85,5",0.5,1.0,1.0
TiO 1,4731.744,-0.9440000000000001,0.5184136122746339,46.0,3.137761073524613,47.0,99.0,99.0,99.0,7.306,0.0,0.0,0.002,_          -0.332507          8 wl:PPN2012   8 gf:PPN2012   8 PPN2012   8 PPN2012   8 PPN2012   8 PPN2012   8 PPN2012   8 PPN2012   8 PPN2012    (49)TiO,"8s2.9s1.3p4.1d1 X,3,2,0,46,3","8s2.11s1.3p4.1d1 C,3,2,0,47,6",0.5,1.0,1.0
Fe 1,4731.7638,-5.689,2.1759451067404756,3.0,4.795465625133283,2.0,1.67,1.15,2.18,8.2,-5.89,-7.73,0.24,_          Kurucz Fe I 2014   5 wl:K14   5 gf:K14   5 K14   5 K14   5 K14   5 K14   5 K14   5 K14   5 K14    Fe,3d7.(4P).4s a5P,3d7.(4F).4p y3D*,0.5,1.0,1.0
TiO 1,4731.7703,0.36200000000000004,0.5232169212640834,65.0,3.140764342739932,64.0,99.0,99.0,99.0,7.297999999999999,0.0,0.0,0.04,_          -3.56042           6 wl:PPN2012   6 gf:PPN2012   6 PPN2012   6 PPN2012   6 PPN2012   6 PPN2012   6 PPN2012   6 PPN2012   6 PPN2012    (48)TiO,"8s2.9s1.3p4.1d1 X,3,2,0,64,2","8s2.11s1.3p4.1d1 C,3,2,0,63,5",0.5,1.0,1.0
MgH 1,4731.7714,-1.0490000000000002,0.4591847741454265,20.5,3.0787010770755203,21.5,99.0,99.0,99.0,7.39,0.0,0.0,0.055999999999999994,_                            18 wl:KMGH  18 gf:KMGH  18 KMGH  18 KMGH  18 KMGH  18 KMGH  18 KMGH  18 KMGH  18 KMGH    (24)MgH,"4s2.5s1 X,2,0,e,20,1","4s2.2p1 A,2,1,e,21,2",0.5,1.0,1.0
TiO 1,4731.7743,-0.9209999999999999,0.45104182681292176,32.0,3.0703137940850613,31.0,99.0,99.0,99.0,7.313,0.0,0.0,0.003,_          -0.438459          3 wl:PPN2012   3 gf:PPN2012   3 PPN2012   3 PPN2012   3 PPN2012   3 PPN2012   3 PPN2012   3 PPN2012   3 PPN2012    (46)TiO,"8s2.9s1.3p4.1d1 X,3,2,0,32,3","8s2.11s1.3p4.1d1 C,3,2,0,31,6",0.5,1.0,1.0
TiO 1,4731.7763,-0.61,0.5307791390140578,62.0,3.150239215110599,61.0,99.0,99.0,99.0,7.3,0.0,0.0,0.004,_          -0.0968033         3 wl:PPN2012   3 gf:PPN2012   3 PPN2012   3 PPN2012   3 PPN2012   3 PPN2012   3 PPN2012   3 PPN2012   3 PPN2012    (46)TiO,"8s2.9s1.3p4.1d1 X,3,2,0,63,2","8s2.11s1.3p4.1d1 C,3,2,0,62,5",0.5,1.0,1.0
Nd 1,4731.777,-0.024,0.13986111786136188,5.0,2.759374321186519,5.0,0.9,1.03,0.96,0.0,0.0,0.0,0.35100000000000003,_          La1 to Lu 2 Bell   1 wl:MC   1 gf:MC   1 MC   1 MC   1 MC   1 MC   1 MC   1 MC   1 MC    Nd,4f4.6s2 5I,* *,0.5,1.0,1.0
TiO 1,4731.7864,0.271,1.0084592062234117,76.0,3.627967189813855,75.0,99.0,99.0,99.0,7.273,0.0,0.0,0.005,_                             6 wl:PPN2012   6 gf:PPN2012   6 PPN2012   6 PPN2012   6 PPN2012   6 PPN2012   6 PPN2012   6 PPN2012   6 PPN2012    (48)TiO,"8s2.9s1.3p4.1d1 X,3,2,0,77,5","8s2.11s1.3p4.1d1 C,3,2,0,76,9",0.5,1.0,1.0
Ni 1,4731.7978,-0.85,3.8327008072859066,1.0,6.452202480080699,2.0,0.55,0.67,0.73,8.14,-5.58,-7.192,0.645,ND-        Kurucz NiI 2008   33 wl:K08  40 gf:FMW  33 K08  33 K08  33 K08  33 K08  33 K08  25 BPM  33 K08    Ni,3d9.(2D).4p z3D*,3d8.4s.(4F).5s f3F,0.6,1.0,1.0
C2 1,4731.8239,-0.536,0.2878110887498723,31.0,2.9072615560711097,30.0,99.0,99.0,99.0,6.77,0.0,0.0,0.009000000000000001,_                             9 wl:BBSB   9 gf:BBSB   9 BBSB   9 BBSB   9 BBSB   9 BBSB   9 BBSB   9 BBSB   9 BBSB    (12)C(12)C,"2sg2.2su2.3sg1.1pu3 a,3,1,e,32,0,g","2sg2.2su1.3sg1.1pu3/2sg2.2su2.3sg1.1pg1.1pu2 d,3,1,e,31,1,g",0.5,1.0,1.0
CH 1,4731.828,-2.701,0.9942060944680235,13.5,3.613691277364552,14.5,99.0,99.0,99.0,6.27,0.0,0.0,0.004,_                            37 wl:JLIY  37 gf:JLIY  37 JLIY  37 JLIY  37 JLIY  37 JLIY  37 JLIY  37 JLIY  37 JLIY    (12)CH,"1s2.2s2.3s2.1p1 X,2,1,e,14,2","1s2.2s2.3s1.1p2 A,2,2,e,15,1",0.5,1.0,1.0
Dy 2,4731.849,-1.4880000000000002,0.5382277996375694,7.5,3.157701452003734,6.5,1.23,1.15,1.47,0.0,0.0,0.0,0.342,_          La1 to Lu 2 Bell   1 wl:MC   1 gf:MC   1 MC   1 MC   1 MC   1 MC   1 MC   1 MC   1 MC    Dy+,"4f10.(5I<7>).6s.<1/2> (7,1/2)",4f9.(6H*).5d.\ (5I*).6s  *,0.5,1.0,2.0
TiO 1,4731.8597,0.275,1.0031042047504795,77.0,3.62257164550835,76.0,99.0,99.0,99.0,7.272,0.0,0.0,0.005,_                             6 wl:PPN2012   6 gf:PPN2012   6 PPN2012   6 PPN2012   6 PPN2012   6 PPN2012   6 PPN2012   6 PPN2012   6 PPN2012    (48)TiO,"8s2.9s1.3p4.1d1 X,3,2,0,77,5","8s2.11s1.3p4.1d1 C,3,2,0,76,9",0.5,1.0,1.0
TiO 1,4731.8626,0.191,0.5072157935038232,46.0,3.1271263289866127,47.0,99.0,99.0,99.0,7.306,0.0,0.0,0.027999999999999997,_          0.803241           6 wl:PPN2012   6 gf:PPN2012   6 PPN2012   6 PPN2012   6 PPN2012   6 PPN2012   6 PPN2012   6 PPN2012   6 PPN2012    (48)TiO,"8s2.9s1.3p4.1d1 X,3,2,0,45,3","8s2.11s1.3p4.1d1 C,3,2,0,46,6",0.5,1.0,1.0
TiO 1,4731.8643,0.19899999999999998,0.5261303267330759,47.0,3.1454032114882766,48.0,99.0,99.0,99.0,7.305,0.0,0.0,0.027000000000000003,_          -0.346870          6 wl:PPN2012   6 gf:PPN2012   6 PPN2012   6 PPN2012   6 PPN2012   6 PPN2012   6 PPN2012   6 PPN2012   6 PPN2012    (48)TiO,"8s2.9s1.3p4.1d1 X,3,2,0,47,3","8s2.11s1.3p4.1d1 C,3,2,0,48,6",0.5,1.0,1.0
TiO 1,4731.8652,-0.7170000000000001,0.6585326544619929,77.0,3.27793215187965,78.0,99.0,99.0,99.0,7.285,0.0,0.0,0.002,_          -0.117260          4 wl:PPN2012   4 gf:PPN2012   4 PPN2012   4 PPN2012   4 PPN2012   4 PPN2012   4 PPN2012   4 PPN2012   4 PPN2012    (50)TiO,"8s2.9s1.3p4.1d1 X,3,2,0,78,2","8s2.11s1.3p4.1d1 C,3,2,0,79,5",0.5,1.0,1.0
Ir 1,4731.873,-2.16,2.0538490646136207,1.5,4.673309078718063,1.5,1.39,0.79,1.09,0.0,0.0,0.0,0.002,_          Hf 1 - U 2 Bell   36 wl:GHcor  36 gf:GHcor  36 GHcor  36 GHcor  36 GHcor  36 GHcor  36 GHcor  36 GHcor  36 GHcor    Ir,5d8.(3P).6s a4P,5d7.6s.(5F).6p z6G*,0.5,1.0,1.0
V 1,4731.8893,-2.7289999999999996,1.9552973604756232,4.5,4.574748412010399,4.5,1.31,1.17,1.24,7.46,-6.12,-7.8,0.568,"_          Kurucz V I 2009   19 wl:K09  19 gf:K09  19 K09  19 K09  19 K09  19 K09  19 K09  19 K09  19 K09   hfs:UBDE,GYDE V",3d4.(3F2).4s b4F,3d3.(2H).4s.4p.(3P*) w4G*,0.5,1.0,1.0
V 1,4731.8897,-2.832,1.955291017692049,4.5,4.574741861181342,4.5,1.31,1.17,1.24,7.46,-6.12,-7.8,0.568,"_          Kurucz V I 2009   19 wl:K09  19 gf:K09  19 K09  19 K09  19 K09  19 K09  19 K09  19 K09  19 K09   hfs:UBDE,GYDE V",3d4.(3F2).4s b4F,3d3.(2H).4s.4p.(3P*) w4G*,0.5,1.0,1.0
V 1,4731.8898,-2.6860000000000004,1.9553058185535903,4.5,4.574756600670705,4.5,1.31,1.17,1.24,7.46,-6.12,-7.8,0.568,"_          Kurucz V I 2009   19 wl:K09  19 gf:K09  19 K09  19 K09  19 K09  19 K09  19 K09  19 K09  19 K09   hfs:UBDE,GYDE V",3d4.(3F2).4s b4F,3d3.(2H).4s.4p.(3P*) w4G*,0.5,1.0,1.0
V 1,4731.8909,-3.053,1.955286789582947,4.5,4.574736947935564,4.5,1.31,1.17,1.24,7.46,-6.12,-7.8,0.568,"_          Kurucz V I 2009   19 wl:K09  19 gf:K09  19 K09  19 K09  19 K09  19 K09  19 K09  19 K09  19 K09   hfs:UBDE,GYDE V",3d4.(3F2).4s b4F,3d3.(2H).4s.4p.(3P*) w4G*,0.5,1.0,1.0