species,wlcent,gflog,excit,j_lo,e_upp,j_up,lande_lower,lande_upper,lande,gamrad,gamqst,gamvw,depth,reference,term_lower,term_upper,error,atom_number,ionization
TiO 1,4889.0514,0.469,1.1627822500255407,110.0,3.693285164646055,109.0,99.0,99.0,99.0,7.244,0.0,0.0,0.005,_          -9.16820           6 wl:PPN2012   6 gf:PPN2012   6 PPN2012   6 PPN2012   6 PPN2012   6 PPN2012   6 PPN2012   6 PPN2012   6 PPN2012    (48)TiO,"8s2.9s1.3p4.1d1 X,3,2,0,110,3","8s2.11s1.3p4.1d1 C,3,2,0,109,6",0.5,1.0,1.0
TiO 1,4889.0761,-0.455,0.48774851392540913,74.0,3.0230423391156256,73.0,99.0,99.0,99.0,7.295,0.0,0.0,0.006999999999999999,_          0.112691           3 wl:PPN2012   3 gf:PPN2012   3 PPN2012   3 PPN2012   3 PPN2012   3 PPN2012   3 PPN2012   3 PPN2012   3 PPN2012    (46)TiO,"8s2.9s1.3p4.1d1 X,3,2,0,73,1","8s2.11s1.3p4.1d1 C,3,2,0,72,3",0.5,1.0,1.0
TiO 1,4889.0989,0.485,0.49401643584115346,72.0,3.0292775044063984,71.0,99.0,99.0,99.0,7.296,0.0,0.0,0.059000000000000004,_          0.0725063          6 wl:PPN2012   6 gf:PPN2012   6 PPN2012   6 PPN2012   6 PPN2012   6 PPN2012   6 PPN2012   6 PPN2012   6 PPN2012    (48)TiO,"8s2.9s1.3p4.1d1 X,3,2,0,73,1","8s2.11s1.3p4.1d1 C,3,2,0,72,3",0.5,1.0,1.0
Nd 2,4889.1,-0.89,0.18226916870083407,5.5,2.7174918393601226,4.5,1.02,0.94,1.22,0.0,0.0,0.0,0.858,E 0.02     Wisconsin REE ex  11 wl:HLSC  11 gf:HLSC  11 HLSC  11 HLSC  11 HLSC  11 HLSC  11 HLSC  11 HLSC  11 HLSC    Nd+,4f4.(5I).6s 6I,4H* 4H*,1.0471285480508996,1.0,2.0
Fe 1,4889.1018,-1.227,3.883509035472375,3.0,6.418730962226479,3.0,1.32,1.49,1.41,8.0,-5.33,-7.53,0.787,_          Kurucz Fe I 2014   5 wl:K14   5 gf:K14   5 K14   5 K14   5 K14   5 K14   5 K14   5 K14   5 K14    Fe,3d6.(5D).4s.4p.(3P*) z3D*,3d6.(5D).4s\ (4D).5s g5D,0.5,1.0,1.0
TiO 1,4889.113,0.36,1.397493585057623,146.0,3.932428612378781,145.0,99.0,99.0,99.0,7.187,0.0,0.0,0.001,_          -0.542190          6 wl:PPN2012   6 gf:PPN2012   6 PPN2012   6 PPN2012   6 PPN2012   6 PPN2012   6 PPN2012   6 PPN2012   6 PPN2012    (48)TiO,"8s2.9s1.3p4.1d1 X,3,2,0,146,0","8s2.11s1.3p4.1d1 C,3,2,0,145,3",0.5,1.0,1.0
TiO 1,4889.1346,-0.42200000000000004,0.6887886421548255,90.0,3.2240171276729757,91.0,99.0,99.0,99.0,7.275,0.0,0.0,0.003,_          0.0454500          2 wl:PPN2012   2 gf:PPN2012   2 PPN2012   2 PPN2012   2 PPN2012   2 PPN2012   2 PPN2012   2 PPN2012   2 PPN2012    (47)TiO,"8s2.9s1.3p4.1d1 X,3,2,0,91,1","8s2.11s1.3p4.1d1 C,3,2,0,92,3",0.5,1.0,1.0
Re 1,4889.136,-1.48,0.0,2.5,2.535204073029668,3.5,1.95,1.93,1.9,0.0,0.0,0.0,0.718,_          Hf 1 - U 2 Bell   36 wl:DSLc  36 gf:DSLc  36 DSLc  36 DSLc  36 DSLc  36 DSLc  36 DSLc  36 DSLc  36 DSLc    Re,5d5.6s2 a6S,5d5.6s.(a7S).6p z8P*,0.5,1.0,1.0
TiO 1,4889.1439,0.19399999999999998,0.3985570347145834,48.0,2.9337794202102176,47.0,99.0,99.0,99.0,7.313,0.0,0.0,0.044000000000000004,_          0.0427681          6 wl:PPN2012   6 gf:PPN2012   6 PPN2012   6 PPN2012   6 PPN2012   6 PPN2012   6 PPN2012   6 PPN2012   6 PPN2012    (48)TiO,"8s2.9s1.3p4.1d1 X,3,2,0,47,2","8s2.11s1.3p4.1d1 C,3,2,0,46,4",0.5,1.0,1.0
Ti 1,4889.1592,-2.665,2.6618772397745274,3.0,5.197069410321238,4.0,0.75,0.95,1.24,8.22,-4.66,-7.55,0.04,_          Kurucz TiI 2016   22 wl:K16  22 gf:K16  22 K16  22 K16  22 K16  22 K16  22 K16  22 K16  22 K16    Ti,3d2.(3F).4s.4p.(3P*) z3G*,3d2.4s.(4F).4d e5H,0.5,1.0,1.0
TiO 1,4889.1645,-0.644,0.4864597849816454,73.0,3.021729346464417,72.0,99.0,99.0,99.0,7.296,0.0,0.0,0.005,_          0.154395           8 wl:PPN2012   8 gf:PPN2012   8 PPN2012   8 PPN2012   8 PPN2012   8 PPN2012   8 PPN2012   8 PPN2012   8 PPN2012    (49)TiO,"8s2.9s1.3p4.1d1 X,3,2,0,73,1","8s2.11s1.3p4.1d1 C,3,2,0,72,3",0.5,1.0,1.0
TiO 1,4889.1747,0.5710000000000001,0.8083308081885116,110.0,3.3435246277250488,111.0,99.0,99.0,99.0,7.25,0.0,0.0,0.022000000000000002,_          0.0186891          6 wl:PPN2012   6 gf:PPN2012   6 PPN2012   6 PPN2012   6 PPN2012   6 PPN2012   6 PPN2012   6 PPN2012   6 PPN2012    (48)TiO,"8s2.9s1.3p4.1d1 X,3,2,0,110,0","8s2.11s1.3p4.1d1 C,3,2,0,111,2",0.5,1.0,1.0
TiO 1,4889.1811,0.41100000000000003,0.8900988823568503,57.0,3.425279683552653,58.0,99.0,99.0,99.0,7.3839999999999995,0.0,0.0,0.011000000000000001,_                             6 wl:PPN2012   6 gf:PPN2012   6 PPN2012   6 PPN2012   6 PPN2012   6 PPN2012   6 PPN2012   6 PPN2012   6 PPN2012    (48)TiO,"8s2.9s1.3p4.1d1 a,1,2,0,57,2","8s2.11s1.3p4.1d1 f,1,2,0,58,4",0.5,1.0,1.0
TiO 1,4889.196,-0.6409999999999999,0.5647137750410883,93.0,3.099866419425646,92.0,99.0,99.0,99.0,7.276,0.0,0.0,0.003,_          -0.0396175         8 wl:PPN2012   8 gf:PPN2012   8 PPN2012   8 PPN2012   8 PPN2012   8 PPN2012   8 PPN2012   8 PPN2012   8 PPN2012    (49)TiO,"8s2.9s1.3p4.1d1 X,3,2,0,92,0","8s2.11s1.3p4.1d1 C,3,2,0,91,2",0.5,1.0,1.0
Gd 1,4889.201,-0.501,1.448828994051734,4.0,3.9839997153322826,3.0,2.19,1.65,3.0,0.0,0.0,0.0,0.006,_          La1 to Lu 2 Bell   1 wl:MC   1 gf:MC   1 MC   1 MC   1 MC   1 MC   1 MC   1 MC   1 MC    Gd,4f7.(8S*).5d2.(3P)\ (10P*).6s       11P*,4f7.(8S*).5d.\ (7D*).6s.6p.(1P*)?,0.5,1.0,1.0
TiO 1,4889.2072,-0.823,0.5353592888464808,65.0,3.070588543066655,66.0,99.0,99.0,99.0,7.2989999999999995,0.0,0.0,0.002,_          0.119514           8 wl:PPN2012   8 gf:PPN2012   8 PPN2012   8 PPN2012   8 PPN2012   8 PPN2012   8 PPN2012   8 PPN2012   8 PPN2012    (49)TiO,"8s2.9s1.3p4.1d1 X,3,2,0,65,2","8s2.11s1.3p4.1d1 C,3,2,0,66,4",0.5,1.0,1.0
Mo 1,4889.211,-1.6740000000000002,2.597574695519608,2.0,5.132739961495467,1.0,1.29,1.07,1.4,0.0,0.0,0.0,0.004,_          Cu 1 - Ba 2 Bell  17 wl:WBb  17 gf:WBb  17 WBb  17 WBb  17 WBb  17 WBb  17 WBb  17 WBb  17 WBb    Mo,4d5.(4D).5s a3D,* *,0.5,1.0,1.0
TiO 1,4889.215,0.14800000000000002,1.2201508540527457,74.0,3.7553140866877674,74.0,99.0,99.0,99.0,7.537999999999999,0.0,0.0,0.002,_                             6 wl:PPN2012   6 gf:PPN2012   6 PPN2012   6 PPN2012   6 PPN2012   6 PPN2012   6 PPN2012   6 PPN2012   6 PPN2012    (48)TiO,"8s2.9s1.3p4.1d1 X,3,2,+,75,7","8s2.3p4.4p1.1d1 B,3,1,-,75,10",0.5,1.0,1.0
TiO 1,4889.2438,-0.634,0.5503459779030404,66.0,3.085557775148211,67.0,99.0,99.0,99.0,7.297999999999999,0.0,0.0,0.004,_          0.122381           3 wl:PPN2012   3 gf:PPN2012   3 PPN2012   3 PPN2012   3 PPN2012   3 PPN2012   3 PPN2012   3 PPN2012   3 PPN2012    (46)TiO,"8s2.9s1.3p4.1d1 X,3,2,0,66,2","8s2.11s1.3p4.1d1 C,3,2,0,67,4",0.5,1.0,1.0
MgH 1,4889.2487,-2.186,0.6794110849807526,5.5,3.21455688543761,4.5,99.0,99.0,99.0,7.06,0.0,0.0,0.002,_                            18 wl:KMGH  18 gf:KMGH  18 KMGH  18 KMGH  18 KMGH  18 KMGH  18 KMGH  18 KMGH  18 KMGH    (24)MgH,"4s2.5s1 X,2,0,e,5,4","4s1.5s2/4s2.7s1/4s2.6s1 B,2,0,e,4,5",0.5,1.0,1.0
MgH 1,4889.2487,-2.275,0.6794110849807526,4.5,3.21455688543761,3.5,99.0,99.0,99.0,7.06,0.0,0.0,0.001,_                            18 wl:KMGH  18 gf:KMGH  18 KMGH  18 KMGH  18 KMGH  18 KMGH  18 KMGH  18 KMGH  18 KMGH    (24)MgH,"4s2.5s1 X,2,0,f,5,4","4s1.5s2/4s2.7s1/4s2.6s1 B,2,0,f,4,5",0.5,1.0,1.0
Er 2,4889.255,-2.68,0.8921103151876674,4.5,3.4272527680711926,5.5,0.95,1.05,1.28,0.0,0.0,0.0,0.006999999999999999,E 0.05     Wisconsin REE ex  11 wl:LSCW  11 gf:LSCW  11 LSCW  11 LSCW  11 LSCW  11 LSCW  11 LSCW  11 LSCW  11 LSCW    Er+,"4f12.(3H<5>).6s<1/2> (5,1/2)",* *,1.1220184543019633,1.0,2.0
TiO 1,4889.2566,0.165,0.7472514935136427,33.0,3.2823932272888228,32.0,99.0,99.0,99.0,7.393,0.0,0.0,0.011000000000000001,_                             6 wl:PPN2012   6 gf:PPN2012   6 PPN2012   6 PPN2012   6 PPN2012   6 PPN2012   6 PPN2012   6 PPN2012   6 PPN2012    (48)TiO,"8s2.9s1.3p4.1d1 a,1,2,0,33,2","8s2.11s1.3p4.1d1 f,1,2,0,32,4",0.5,1.0,1.0
TiO 1,4889.27,-0.9670000000000001,0.40260312261640385,47.0,2.9377433189875353,46.0,99.0,99.0,99.0,7.313,0.0,0.0,0.003,_          0.0103527          4 wl:PPN2012   4 gf:PPN2012   4 PPN2012   4 PPN2012   4 PPN2012   4 PPN2012   4 PPN2012   4 PPN2012   4 PPN2012    (50)TiO,"8s2.9s1.3p4.1d1 X,3,2,0,47,2","8s2.11s1.3p4.1d1 C,3,2,0,46,4",0.5,1.0,1.0
TiO 1,4889.2852,-0.802,0.41297948408687624,48.0,2.948115093042701,47.0,99.0,99.0,99.0,7.312,0.0,0.0,0.004,_          0.0168236          2 wl:PPN2012   2 gf:PPN2012   2 PPN2012   2 PPN2012   2 PPN2012   2 PPN2012   2 PPN2012   2 PPN2012   2 PPN2012    (47)TiO,"8s2.9s1.3p4.1d1 X,3,2,0,48,2","8s2.11s1.3p4.1d1 C,3,2,0,47,4",0.5,1.0,1.0
TiO 1,4889.3017,-0.154,1.1026187322268652,88.0,3.6377370205903037,89.0,99.0,99.0,99.0,7.263999999999999,0.0,0.0,0.001,_                             6 wl:PPN2012   6 gf:PPN2012   6 PPN2012   6 PPN2012   6 PPN2012   6 PPN2012   6 PPN2012   6 PPN2012   6 PPN2012    (48)TiO,"8s2.9s1.3p4.1d1 X,3,2,0,87,5","8s2.11s1.3p4.1d1 C,3,2,0,88,8",0.5,1.0,1.0
TiO 1,4889.3091,0.134,1.2149053058293402,104.0,3.750019837471595,104.0,99.0,99.0,99.0,7.359,0.0,0.0,0.002,_                             6 wl:PPN2012   6 gf:PPN2012   6 PPN2012   6 PPN2012   6 PPN2012   6 PPN2012   6 PPN2012   6 PPN2012   6 PPN2012    (48)TiO,"8s2.9s1.3p4.1d1 X,3,2,+,105,4","8s2.3p4.4p1.1d1 B,3,1,-,105,7",0.5,1.0,1.0
TiO 1,4889.3206,-0.418,0.6841509264595171,91.0,3.219314779015526,92.0,99.0,99.0,99.0,7.275,0.0,0.0,0.003,_          0.106631           2 wl:PPN2012   2 gf:PPN2012   2 PPN2012   2 PPN2012   2 PPN2012   2 PPN2012   2 PPN2012   2 PPN2012   2 PPN2012    (47)TiO,"8s2.9s1.3p4.1d1 X,3,2,0,91,1","8s2.11s1.3p4.1d1 C,3,2,0,92,3",0.5,1.0,1.0
TiO 1,4889.3243,-0.997,0.6168504195129305,60.0,3.1519570161665476,60.0,99.0,99.0,99.0,7.2860000000000005,0.0,0.0,0.001,_                             6 wl:PPN2012   6 gf:PPN2012   6 PPN2012   6 PPN2012   6 PPN2012   6 PPN2012   6 PPN2012   6 PPN2012   6 PPN2012    (48)TiO,"8s2.9s1.3p4.1d1 X,3,2,+,60,3","8s2.3p4.4p1.1d1 B,3,1,-,60,7",0.5,1.0,1.0
TiO 1,4889.353,0.306,0.5432961000522718,64.0,3.0784026471122097,65.0,99.0,99.0,99.0,7.2989999999999995,0.0,0.0,0.033,_          0.0285022          6 wl:PPN2012   6 gf:PPN2012   6 PPN2012   6 PPN2012   6 PPN2012   6 PPN2012   6 PPN2012   6 PPN2012   6 PPN2012    (48)TiO,"8s2.9s1.3p4.1d1 X,3,2,0,65,2","8s2.11s1.3p4.1d1 C,3,2,0,66,4",0.5,1.0,1.0
TiO 1,4889.3799,-0.563,0.8043218535538335,110.0,3.33940934424262,111.0,99.0,99.0,99.0,7.25,0.0,0.0,0.001,_          0.0186891          8 wl:PPN2012   8 gf:PPN2012   8 PPN2012   8 PPN2012   8 PPN2012   8 PPN2012   8 PPN2012   8 PPN2012   8 PPN2012    (49)TiO,"8s2.9s1.3p4.1d1 X,3,2,0,110,0","8s2.11s1.3p4.1d1 C,3,2,0,111,2",0.5,1.0,1.0
TiO 1,4889.4139,0.17600000000000002,0.41233805184126454,46.0,2.947405655464777,45.0,99.0,99.0,99.0,7.313,0.0,0.0,0.04,_          0.0144001          6 wl:PPN2012   6 gf:PPN2012   6 PPN2012   6 PPN2012   6 PPN2012   6 PPN2012   6 PPN2012   6 PPN2012   6 PPN2012    (48)TiO,"8s2.9s1.3p4.1d1 X,3,2,0,47,2","8s2.11s1.3p4.1d1 C,3,2,0,46,4",0.5,1.0,1.0
TiO 1,4889.4198,-0.997,0.6168504195129305,60.0,3.1519075464717567,60.0,99.0,99.0,99.0,7.2860000000000005,0.0,0.0,0.001,_                             6 wl:PPN2012   6 gf:PPN2012   6 PPN2012   6 PPN2012   6 PPN2012   6 PPN2012   6 PPN2012   6 PPN2012   6 PPN2012    (48)TiO,"8s2.9s1.3p4.1d1 X,3,2,-,60,3","8s2.3p4.4p1.1d1 B,3,1,+,60,7",0.5,1.0,1.0
TiO 1,4889.4291,-0.46299999999999997,0.5948600987112587,92.0,3.1299857765328665,91.0,99.0,99.0,99.0,7.277,0.0,0.0,0.004,_          0.141694           3 wl:PPN2012   3 gf:PPN2012   3 PPN2012   3 PPN2012   3 PPN2012   3 PPN2012   3 PPN2012   3 PPN2012   3 PPN2012    (46)TiO,"8s2.9s1.3p4.1d1 X,3,2,0,93,0","8s2.11s1.3p4.1d1 C,3,2,0,92,2",0.5,1.0,1.0
TiO 1,4889.437,-0.659,0.5619860978999061,93.0,3.097013791010253,92.0,99.0,99.0,99.0,7.276,0.0,0.0,0.003,_          -0.0396175         4 wl:PPN2012   4 gf:PPN2012   4 PPN2012   4 PPN2012   4 PPN2012   4 PPN2012   4 PPN2012   4 PPN2012   4 PPN2012    (50)TiO,"8s2.9s1.3p4.1d1 X,3,2,0,92,0","8s2.11s1.3p4.1d1 C,3,2,0,91,2",0.5,1.0,1.0
TiO 1,4889.4643,-0.629,0.5447318866526548,67.0,3.079636785813827,68.0,99.0,99.0,99.0,7.297000000000001,0.0,0.0,0.003,_          -0.249121          3 wl:PPN2012   3 gf:PPN2012   3 PPN2012   3 PPN2012   3 PPN2012   3 PPN2012   3 PPN2012   3 PPN2012   3 PPN2012    (46)TiO,"8s2.9s1.3p4.1d1 X,3,2,0,66,2","8s2.11s1.3p4.1d1 C,3,2,0,67,4",0.5,1.0,1.0
TiO 1,4889.4647,-0.5,0.48545002048218944,74.0,3.0205421977736404,73.0,99.0,99.0,99.0,7.295,0.0,0.0,0.006,_          0.112691           2 wl:PPN2012   2 gf:PPN2012   2 PPN2012   2 PPN2012   2 PPN2012   2 PPN2012   2 PPN2012   2 PPN2012   2 PPN2012    (47)TiO,"8s2.9s1.3p4.1d1 X,3,2,0,73,1","8s2.11s1.3p4.1d1 C,3,2,0,72,3",0.5,1.0,1.0
TiO 1,4889.4651,-0.649,0.4919370844669622,72.0,3.0270082216401026,71.0,99.0,99.0,99.0,7.296,0.0,0.0,0.004,_          0.0725063          8 wl:PPN2012   8 gf:PPN2012   8 PPN2012   8 PPN2012   8 PPN2012   8 PPN2012   8 PPN2012   8 PPN2012   8 PPN2012    (49)TiO,"8s2.9s1.3p4.1d1 X,3,2,0,73,1","8s2.11s1.3p4.1d1 C,3,2,0,72,3",0.5,1.0,1.0
TiO 1,4889.4724,-0.8170000000000001,0.5296428610395033,66.0,3.064560555369855,67.0,99.0,99.0,99.0,7.297999999999999,0.0,0.0,0.002,_          -0.216316          8 wl:PPN2012   8 gf:PPN2012   8 PPN2012   8 PPN2012   8 PPN2012   8 PPN2012   8 PPN2012   8 PPN2012   8 PPN2012    (49)TiO,"8s2.9s1.3p4.1d1 X,3,2,0,65,2","8s2.11s1.3p4.1d1 C,3,2,0,66,4",0.5,1.0,1.0
TiO 1,4889.4838,0.574,0.6856288180933611,90.0,3.2206762494879455,91.0,99.0,99.0,99.0,7.275,0.0,0.0,0.035,_          0.0454500          6 wl:PPN2012   6 gf:PPN2012   6 PPN2012   6 PPN2012   6 PPN2012   6 PPN2012   6 PPN2012   6 PPN2012   6 PPN2012    (48)TiO,"8s2.9s1.3p4.1d1 X,3,2,0,91,1","8s2.11s1.3p4.1d1 C,3,2,0,92,3",0.5,1.0,1.0
TiO 1,4889.4967,0.33399999999999996,0.8074754164133257,62.0,3.3424925832653076,61.0,99.0,99.0,99.0,7.388999999999999,0.0,0.0,0.013000000000000001,_                             6 wl:PPN2012   6 gf:PPN2012   6 PPN2012   6 PPN2012   6 PPN2012   6 PPN2012   6 PPN2012   6 PPN2012   6 PPN2012    (48)TiO,"8s2.9s1.3p4.1d1 a,1,2,0,62,1","8s2.11s1.3p4.1d1 f,1,2,0,61,3",0.5,1.0,1.0
TiO 1,4889.509,-0.662,0.48444908365759337,73.0,3.0195400335054896,72.0,99.0,99.0,99.0,7.296,0.0,0.0,0.004,_          0.154395           4 wl:PPN2012   4 gf:PPN2012   4 PPN2012   4 PPN2012   4 PPN2012   4 PPN2012   4 PPN2012   4 PPN2012   4 PPN2012    (50)TiO,"8s2.9s1.3p4.1d1 X,3,2,0,73,1","8s2.11s1.3p4.1d1 C,3,2,0,72,3",0.5,1.0,1.0
TiO 1,4889.513,0.364,1.3942464389258802,147.0,3.9285296813209376,146.0,99.0,99.0,99.0,7.185,0.0,0.0,0.002,_          -1.39992           6 wl:PPN2012   6 gf:PPN2012   6 PPN2012   6 PPN2012   6 PPN2012   6 PPN2012   6 PPN2012   6 PPN2012   6 PPN2012    (48)TiO,"8s2.9s1.3p4.1d1 X,3,2,0,146,0","8s2.11s1.3p4.1d1 C,3,2,0,145,3",0.5,1.0,1.0
TiO 1,4889.5131,0.46399999999999997,1.139191367625048,107.0,3.673370698864206,106.0,99.0,99.0,99.0,7.247999999999999,0.0,0.0,0.005,_          -1.60016           6 wl:PPN2012   6 gf:PPN2012   6 PPN2012   6 PPN2012   6 PPN2012   6 PPN2012   6 PPN2012   6 PPN2012   6 PPN2012    (48)TiO,"8s2.9s1.3p4.1d1 X,3,2,0,108,3","8s2.11s1.3p4.1d1 C,3,2,0,107,6",0.5,1.0,1.0
TiO 1,4889.5223,-0.76,0.7585091470581525,35.0,3.2935131219915235,34.0,99.0,99.0,99.0,7.393,0.0,0.0,0.001,_                             3 wl:PPN2012   3 gf:PPN2012   3 PPN2012   3 PPN2012   3 PPN2012   3 PPN2012   3 PPN2012   3 PPN2012   3 PPN2012    (46)TiO,"8s2.9s1.3p4.1d1 a,1,2,0,35,2","8s2.11s1.3p4.1d1 f,1,2,0,34,4",0.5,1.0,1.0
TiO 1,4889.5516,0.223,1.031761441013774,92.0,3.5667502402813747,91.0,99.0,99.0,99.0,7.265,0.0,0.0,0.004,_                             6 wl:PPN2012   6 gf:PPN2012   6 PPN2012   6 PPN2012   6 PPN2012   6 PPN2012   6 PPN2012   6 PPN2012   6 PPN2012    (48)TiO,"8s2.9s1.3p4.1d1 X,3,2,0,91,4","8s2.11s1.3p4.1d1 C,3,2,0,90,7",0.5,1.0,1.0
TiO 1,4889.5792,-0.5820000000000001,0.8004838979243062,110.0,3.3354680105892425,111.0,99.0,99.0,99.0,7.25,0.0,0.0,0.002,_          0.0186891          4 wl:PPN2012   4 gf:PPN2012   4 PPN2012   4 PPN2012   4 PPN2012   4 PPN2012   4 PPN2012   4 PPN2012   4 PPN2012    (50)TiO,"8s2.9s1.3p4.1d1 X,3,2,0,110,0","8s2.11s1.3p4.1d1 C,3,2,0,111,2",0.5,1.0,1.0
TiO 1,4889.5799,-0.7490000000000001,0.40787248820414346,49.0,2.942868081805765,48.0,99.0,99.0,99.0,7.312,0.0,0.0,0.005,_          0.0415617          3 wl:PPN2012   3 gf:PPN2012   3 PPN2012   3 PPN2012   3 PPN2012   3 PPN2012   3 PPN2012   3 PPN2012   3 PPN2012    (46)TiO,"8s2.9s1.3p4.1d1 X,3,2,0,48,2","8s2.11s1.3p4.1d1 C,3,2,0,47,4",0.5,1.0,1.0
Ce 1,4889.585,-0.691,0.15862835786402008,4.0,2.693599836539234,5.0,0.89,1.0,1.21,0.0,0.0,0.0,0.078,_          La1 to Lu 2 Bell   1 wl:CB   1 gf:CB   1 CB   1 CB   1 CB   1 CB   1 CB   1 CB   1 CB    Ce,4f.5d.6s2 3H*,4f.(2F*).5d2.(3F)\ (4I*).6p      5I,0.5,1.0,1.0
TiO 1,4889.614,-0.61,0.8192510883332854,63.0,3.3542074781316673,62.0,99.0,99.0,99.0,7.388999999999999,0.0,0.0,0.001,_                             3 wl:PPN2012   3 gf:PPN2012   3 PPN2012   3 PPN2012   3 PPN2012   3 PPN2012   3 PPN2012   3 PPN2012   3 PPN2012    (46)TiO,"8s2.9s1.3p4.1d1 a,1,2,0,63,1","8s2.11s1.3p4.1d1 f,1,2,0,62,3",0.5,1.0,1.0
Fe 2,4889.6227,-8.099,0.04770750739193785,3.5,2.5826593965639515,2.5,1.58,1.58,1.58,0.08,-6.54,-7.94,0.122,_      C   Kurucz FeII 2013  20 wl:K13  20 gf:K13  20 K13  20 K13  20 K13  20 K13  20 K13  20 K13  20 K13    Fe+,3d6.(5D).4s a6D,3d6.(3P2).4s b4P*,0.5,1.0,2.0
TiO 1,4889.6245,-0.94,0.39717405298390285,48.0,2.932147168250524,47.0,99.0,99.0,99.0,7.313,0.0,0.0,0.003,_          0.0427681          8 wl:PPN2012   8 gf:PPN2012   8 PPN2012   8 PPN2012   8 PPN2012   8 PPN2012   8 PPN2012   8 PPN2012   8 PPN2012    (49)TiO,"8s2.9s1.3p4.1d1 X,3,2,0,47,2","8s2.11s1.3p4.1d1 C,3,2,0,46,4",0.5,1.0,1.0
TiO 1,4889.6423,0.594,1.223007437564038,122.0,3.756989485148181,121.0,99.0,99.0,99.0,7.228,0.0,0.0,0.005,_          -1.85178           6 wl:PPN2012   6 gf:PPN2012   6 PPN2012   6 PPN2012   6 PPN2012   6 PPN2012   6 PPN2012   6 PPN2012   6 PPN2012    (48)TiO,"8s2.9s1.3p4.1d1 X,3,2,0,122,2","8s2.11s1.3p4.1d1 C,3,2,0,121,5",0.5,1.0,1.0
TiO 1,4889.6528,-0.841,0.533413121297212,65.0,3.0684113805590796,66.0,99.0,99.0,99.0,7.2989999999999995,0.0,0.0,0.002,_          0.119514           4 wl:PPN2012   4 gf:PPN2012   4 PPN2012   4 PPN2012   4 PPN2012   4 PPN2012   4 PPN2012   4 PPN2012   4 PPN2012    (50)TiO,"8s2.9s1.3p4.1d1 X,3,2,0,65,2","8s2.11s1.3p4.1d1 C,3,2,0,66,4",0.5,1.0,1.0
TiO 1,4889.6606,0.578,0.6809709177707046,91.0,3.2159584028058124,92.0,99.0,99.0,99.0,7.275,0.0,0.0,0.036000000000000004,_          0.106631           6 wl:PPN2012   6 gf:PPN2012   6 PPN2012   6 PPN2012   6 PPN2012   6 PPN2012   6 PPN2012   6 PPN2012   6 PPN2012    (48)TiO,"8s2.9s1.3p4.1d1 X,3,2,0,91,1","8s2.11s1.3p4.1d1 C,3,2,0,92,3",0.5,1.0,1.0
TiO 1,4889.6709,0.5920000000000001,1.226688776355321,121.0,3.761123738212822,120.0,99.0,99.0,99.0,7.23,0.0,0.0,0.005,_          -0.949128          6 wl:PPN2012   6 gf:PPN2012   6 PPN2012   6 PPN2012   6 PPN2012   6 PPN2012   6 PPN2012   6 PPN2012   6 PPN2012    (48)TiO,"8s2.9s1.3p4.1d1 X,3,2,0,122,2","8s2.11s1.3p4.1d1 C,3,2,0,121,5",0.5,1.0,1.0
TiO 1,4889.6825,-0.508,0.5917368747848875,92.0,3.1267311913492755,91.0,99.0,99.0,99.0,7.277,0.0,0.0,0.004,_          0.141694           2 wl:PPN2012   2 gf:PPN2012   2 PPN2012   2 PPN2012   2 PPN2012   2 PPN2012   2 PPN2012   2 PPN2012   2 PPN2012    (47)TiO,"8s2.9s1.3p4.1d1 X,3,2,0,93,0","8s2.11s1.3p4.1d1 C,3,2,0,92,2",0.5,1.0,1.0
TiO 1,4889.6831,0.489,1.040868960605757,86.0,3.5757895561663293,87.0,99.0,99.0,99.0,7.372999999999999,0.0,0.0,0.008,_                             6 wl:PPN2012   6 gf:PPN2012   6 PPN2012   6 PPN2012   6 PPN2012   6 PPN2012   6 PPN2012   6 PPN2012   6 PPN2012    (48)TiO,"8s2.9s1.3p4.1d1 a,1,2,0,86,1","8s2.11s1.3p4.1d1 f,1,2,0,87,3",0.5,1.0,1.0
TiO 1,4889.719,-0.369,0.6829018228652649,92.0,3.2177710517728255,93.0,99.0,99.0,99.0,7.274,0.0,0.0,0.004,_          -0.0630668         3 wl:PPN2012   3 gf:PPN2012   3 PPN2012   3 PPN2012   3 PPN2012   3 PPN2012   3 PPN2012   3 PPN2012   3 PPN2012    (46)TiO,"8s2.9s1.3p4.1d1 X,3,2,0,91,1","8s2.11s1.3p4.1d1 C,3,2,0,92,3",0.5,1.0,1.0