species,wlcent,gflog,excit,j_lo,e_upp,j_up,lande_lower,lande_upper,lande,gamrad,gamqst,gamvw,depth,reference,term_lower,term_upper,error,atom_number,ionization
TiO 1,4808.2447,-1.5830000000000002,0.1513858457656421,8.0,2.729279636934595,9.0,99.0,99.0,99.0,7.329,0.0,0.0,0.002,_          0.0731709          8 wl:PPN2012   8 gf:PPN2012   8 PPN2012   8 PPN2012   8 PPN2012   8 PPN2012   8 PPN2012   8 PPN2012   8 PPN2012    (49)TiO,"8s2.9s1.3p4.1d1 X,3,2,0,9,1","8s2.11s1.3p4.1d1 C,3,2,0,10,3",0.5,1.0,1.0
Co 1,4808.2487,-2.218,4.149341586630734,3.5,6.72719393335403,2.5,1.16,0.99,1.37,8.36,-5.36,-7.55,0.055999999999999994,"_          Kurucz CoI 2008   12 wl:K08  12 gf:K08  12 K08  12 K08  12 K08  12 K08  12 K08  12 K08  12 K08   hfs:P,P Co",3p6.3d8.(3F).4p y4G*,3p6.3d7.4s.(3F).5s h4F,0.5,1.0,1.0
Co 1,4808.2582,-2.752,4.149333584070709,3.5,6.727180847565894,2.5,1.16,0.99,1.37,8.36,-5.36,-7.55,0.055999999999999994,"_          Kurucz CoI 2008   12 wl:K08  12 gf:K08  12 K08  12 K08  12 K08  12 K08  12 K08  12 K08  12 K08   hfs:P,P Co",3p6.3d8.(3F).4p y4G*,3p6.3d7.4s.(3F).5s h4F,0.5,1.0,1.0
Co 1,4808.2607,-2.109,4.149347988678755,3.5,6.72719393335403,2.5,1.16,0.99,1.37,8.36,-5.36,-7.55,0.055999999999999994,"_          Kurucz CoI 2008   12 wl:K08  12 gf:K08  12 K08  12 K08  12 K08  12 K08  12 K08  12 K08  12 K08   hfs:P,P Co",3p6.3d8.(3F).4p y4G*,3p6.3d7.4s.(3F).5s h4F,0.5,1.0,1.0
TiO 1,4808.2619,-1.435,0.15535630330700573,11.0,2.7332406840753705,12.0,99.0,99.0,99.0,7.327999999999999,0.0,0.0,0.003,_          0.0728941          8 wl:PPN2012   8 gf:PPN2012   8 PPN2012   8 PPN2012   8 PPN2012   8 PPN2012   8 PPN2012   8 PPN2012   8 PPN2012    (49)TiO,"8s2.9s1.3p4.1d1 X,3,2,0,12,1","8s2.11s1.3p4.1d1 C,3,2,0,13,3",0.5,1.0,1.0
Co 1,4808.2642,-2.309,4.14933678509472,3.5,6.727180847565894,2.5,1.16,0.99,1.37,8.36,-5.36,-7.55,0.055999999999999994,"_          Kurucz CoI 2008   12 wl:K08  12 gf:K08  12 K08  12 K08  12 K08  12 K08  12 K08  12 K08  12 K08   hfs:P,P Co",3p6.3d8.(3F).4p y4G*,3p6.3d7.4s.(3F).5s h4F,0.5,1.0,1.0
Co 1,4808.2714,-2.782,4.149331983558703,3.5,6.727172176855027,2.5,1.16,0.99,1.37,8.36,-5.36,-7.55,0.055999999999999994,"_          Kurucz CoI 2008   12 wl:K08  12 gf:K08  12 K08  12 K08  12 K08  12 K08  12 K08  12 K08  12 K08   hfs:P,P Co",3p6.3d8.(3F).4p y4G*,3p6.3d7.4s.(3F).5s h4F,0.5,1.0,1.0
Co 1,4808.2731,-2.364,4.149341586630734,3.5,6.727180847565894,2.5,1.16,0.99,1.37,8.36,-5.36,-7.55,0.055999999999999994,"_          Kurucz CoI 2008   12 wl:K08  12 gf:K08  12 K08  12 K08  12 K08  12 K08  12 K08  12 K08  12 K08   hfs:P,P Co",3p6.3d8.(3F).4p y4G*,3p6.3d7.4s.(3F).5s h4F,0.5,1.0,1.0
TiO 1,4808.2737,-0.568,0.7942035899872346,79.0,3.3709158365511365,78.0,99.0,99.0,99.0,7.282,0.0,0.0,0.002,_          -2.10263           3 wl:PPN2012   3 gf:PPN2012   3 PPN2012   3 PPN2012   3 PPN2012   3 PPN2012   3 PPN2012   3 PPN2012   3 PPN2012    (46)TiO,"8s2.9s1.3p4.1d1 X,3,2,0,79,3","8s2.11s1.3p4.1d1 C,3,2,0,78,6",0.5,1.0,1.0
Co 1,4808.2744,-2.497,4.149333584070709,3.5,6.727172176855027,2.5,1.16,0.99,1.37,8.36,-5.36,-7.55,0.055999999999999994,"_          Kurucz CoI 2008   12 wl:K08  12 gf:K08  12 K08  12 K08  12 K08  12 K08  12 K08  12 K08  12 K08   hfs:P,P Co",3p6.3d8.(3F).4p y4G*,3p6.3d7.4s.(3F).5s h4F,0.5,1.0,1.0
TiO 1,4808.2774,-0.215,0.5098783417460745,35.0,3.0877153481525856,36.0,99.0,99.0,99.0,7.407,0.0,0.0,0.011000000000000001,_                             6 wl:PPN2012   6 gf:PPN2012   6 PPN2012   6 PPN2012   6 PPN2012   6 PPN2012   6 PPN2012   6 PPN2012   6 PPN2012    (48)TiO,"8s2.9s1.3p4.1d1 a,1,2,0,35,0","8s2.11s1.3p4.1d1 f,1,2,0,36,2",0.5,1.0,1.0
Co 1,4808.2804,-2.752,4.14933678509472,3.5,6.727172176855027,2.5,1.16,0.99,1.37,8.36,-5.36,-7.55,0.055999999999999994,"_          Kurucz CoI 2008   12 wl:K08  12 gf:K08  12 K08  12 K08  12 K08  12 K08  12 K08  12 K08  12 K08   hfs:P,P Co",3p6.3d8.(3F).4p y4G*,3p6.3d7.4s.(3F).5s h4F,0.5,1.0,1.0
TiO 1,4808.2872,-1.6480000000000001,0.15032693393030896,7.0,2.728198122780063,8.0,99.0,99.0,99.0,7.33,0.0,0.0,0.001,_          0.0733888          8 wl:PPN2012   8 gf:PPN2012   8 PPN2012   8 PPN2012   8 PPN2012   8 PPN2012   8 PPN2012   8 PPN2012   8 PPN2012    (49)TiO,"8s2.9s1.3p4.1d1 X,3,2,0,8,1","8s2.11s1.3p4.1d1 C,3,2,0,9,3",0.5,1.0,1.0
TiO 1,4808.2907,0.381,0.34765306593082873,71.0,2.9255124018913046,72.0,99.0,99.0,99.0,7.297000000000001,0.0,0.0,0.08,_          0.0549214          6 wl:PPN2012   6 gf:PPN2012   6 PPN2012   6 PPN2012   6 PPN2012   6 PPN2012   6 PPN2012   6 PPN2012   6 PPN2012    (48)TiO,"8s2.9s1.3p4.1d1 X,3,2,0,71,0","8s2.11s1.3p4.1d1 C,3,2,0,72,2",0.5,1.0,1.0
TiO 1,4808.2931,-0.518,0.667344744508244,23.0,3.2451734191766857,24.0,99.0,99.0,99.0,7.307,0.0,0.0,0.003,_                             6 wl:PPN2012   6 gf:PPN2012   6 PPN2012   6 PPN2012   6 PPN2012   6 PPN2012   6 PPN2012   6 PPN2012   6 PPN2012    (48)TiO,"8s2.9s1.3p4.1d1 X,3,2,0,24,5","8s2.11s1.3p4.1d1 C,3,2,0,25,8",0.5,1.0,1.0
TiO 1,4808.2938,-0.638,0.8537337469115537,96.0,3.431298000482051,95.0,99.0,99.0,99.0,7.266,0.0,0.0,0.001,_          -0.492451          4 wl:PPN2012   4 gf:PPN2012   4 PPN2012   4 PPN2012   4 PPN2012   4 PPN2012   4 PPN2012   4 PPN2012   4 PPN2012    (50)TiO,"8s2.9s1.3p4.1d1 X,3,2,0,96,2","8s2.11s1.3p4.1d1 C,3,2,0,95,5",0.5,1.0,1.0
TiO 1,4808.2975,-1.145,0.1558211200633212,22.0,2.73366706573047,23.0,99.0,99.0,99.0,7.3260000000000005,0.0,0.0,0.005,_          0.0367714          4 wl:PPN2012   4 gf:PPN2012   4 PPN2012   4 PPN2012   4 PPN2012   4 PPN2012   4 PPN2012   4 PPN2012   4 PPN2012    (50)TiO,"8s2.9s1.3p4.1d1 X,3,2,0,21,1","8s2.11s1.3p4.1d1 C,3,2,0,22,3",0.5,1.0,1.0
TiO 1,4808.2976,-1.636,0.15094286262650108,15.0,2.728769070009413,15.0,99.0,99.0,99.0,7.327999999999999,0.0,0.0,0.002,_                             6 wl:PPN2012   6 gf:PPN2012   6 PPN2012   6 PPN2012   6 PPN2012   6 PPN2012   6 PPN2012   6 PPN2012   6 PPN2012    (48)TiO,"8s2.9s1.3p4.1d1 X,3,2,0,15,1","8s2.11s1.3p4.1d1 C,3,2,0,15,3",0.5,1.0,1.0
TiO 1,4808.2991,-1.014,0.1781356595413775,21.0,2.756001455078542,22.0,99.0,99.0,99.0,7.325,0.0,0.0,0.006,_          0.0753003          2 wl:PPN2012   2 gf:PPN2012   2 PPN2012   2 PPN2012   2 PPN2012   2 PPN2012   2 PPN2012   2 PPN2012   2 PPN2012    (47)TiO,"8s2.9s1.3p4.1d1 X,3,2,0,22,1","8s2.11s1.3p4.1d1 C,3,2,0,23,3",0.5,1.0,1.0
TiO 1,4808.304,-0.86,0.6900664356923724,55.0,3.267889183916175,54.0,99.0,99.0,99.0,7.297999999999999,0.0,0.0,0.001,_                             3 wl:PPN2012   3 gf:PPN2012   3 PPN2012   3 PPN2012   3 PPN2012   3 PPN2012   3 PPN2012   3 PPN2012   3 PPN2012    (46)TiO,"8s2.9s1.3p4.1d1 X,3,2,0,54,4","8s2.11s1.3p4.1d1 C,3,2,0,53,7",0.5,1.0,1.0
TiO 1,4808.3105,-0.888,0.1772461721118873,28.0,2.7550793846019563,29.0,99.0,99.0,99.0,7.324,0.0,0.0,0.008,_          0.0261479          2 wl:PPN2012   2 gf:PPN2012   2 PPN2012   2 PPN2012   2 PPN2012   2 PPN2012   2 PPN2012   2 PPN2012   2 PPN2012    (47)TiO,"8s2.9s1.3p4.1d1 X,3,2,0,27,1","8s2.11s1.3p4.1d1 C,3,2,0,28,3",0.5,1.0,1.0
TiO 1,4808.3159,-1.396,0.15694426811136358,12.0,2.7347997853585575,13.0,99.0,99.0,99.0,7.327999999999999,0.0,0.0,0.003,_          0.0729193          8 wl:PPN2012   8 gf:PPN2012   8 PPN2012   8 PPN2012   8 PPN2012   8 PPN2012   8 PPN2012   8 PPN2012   8 PPN2012    (49)TiO,"8s2.9s1.3p4.1d1 X,3,2,0,13,1","8s2.11s1.3p4.1d1 C,3,2,0,14,3",0.5,1.0,1.0
TiO 1,4808.3299,-0.465,0.6530138698642025,26.0,3.230822744256308,27.0,99.0,99.0,99.0,7.307,0.0,0.0,0.004,_                             6 wl:PPN2012   6 gf:PPN2012   6 PPN2012   6 PPN2012   6 PPN2012   6 PPN2012   6 PPN2012   6 PPN2012   6 PPN2012    (48)TiO,"8s2.9s1.3p4.1d1 X,3,2,0,25,5","8s2.11s1.3p4.1d1 C,3,2,0,26,8",0.5,1.0,1.0
TiO 1,4808.3346,0.158,1.2617791186806493,40.0,3.839585401803028,41.0,99.0,99.0,99.0,7.358,0.0,0.0,0.001,_                             6 wl:PPN2012   6 gf:PPN2012   6 PPN2012   6 PPN2012   6 PPN2012   6 PPN2012   6 PPN2012   6 PPN2012   6 PPN2012    (48)TiO,"8s2.9s1.3p4.1d1 a,1,2,0,40,6","8s2.11s1.3p4.1d1 f,1,2,0,41,9",0.5,1.0,1.0
TiO 1,4808.3355,0.077,0.6983535518496955,53.0,3.2761594258242224,52.0,99.0,99.0,99.0,7.2989999999999995,0.0,0.0,0.011000000000000001,_                             6 wl:PPN2012   6 gf:PPN2012   6 PPN2012   6 PPN2012   6 PPN2012   6 PPN2012   6 PPN2012   6 PPN2012   6 PPN2012    (48)TiO,"8s2.9s1.3p4.1d1 X,3,2,0,54,4","8s2.11s1.3p4.1d1 C,3,2,0,53,7",0.5,1.0,1.0
TiO 1,4808.3383,-0.816,0.19763321606081374,30.0,2.775477636722334,31.0,99.0,99.0,99.0,7.3229999999999995,0.0,0.0,0.009000000000000001,_          0.0747839          3 wl:PPN2012   3 gf:PPN2012   3 PPN2012   3 PPN2012   3 PPN2012   3 PPN2012   3 PPN2012   3 PPN2012   3 PPN2012    (46)TiO,"8s2.9s1.3p4.1d1 X,3,2,0,30,1","8s2.11s1.3p4.1d1 C,3,2,0,31,3",0.5,1.0,1.0
TiO 1,4808.339,0.24600000000000002,0.20003957575583248,53.0,2.777885285853006,52.0,99.0,99.0,99.0,7.313,0.0,0.0,0.102,_          0.0778735          6 wl:PPN2012   6 gf:PPN2012   6 PPN2012   6 PPN2012   6 PPN2012   6 PPN2012   6 PPN2012   6 PPN2012   6 PPN2012    (48)TiO,"8s2.9s1.3p4.1d1 X,3,2,0,53,0","8s2.11s1.3p4.1d1 C,3,2,0,52,2",0.5,1.0,1.0
TiO 1,4808.3437,-1.236,0.1461884654029536,12.0,2.7240072089371776,11.0,99.0,99.0,99.0,7.329,0.0,0.0,0.004,_          0.0322621          3 wl:PPN2012   3 gf:PPN2012   3 PPN2012   3 PPN2012   3 PPN2012   3 PPN2012   3 PPN2012   3 PPN2012   3 PPN2012    (46)TiO,"8s2.9s1.3p4.1d1 X,3,2,0,12,1","8s2.11s1.3p4.1d1 C,3,2,0,11,3",0.5,1.0,1.0
TiO 1,4808.3448,-0.932,0.6141440676537131,9.0,3.1919450194556003,8.0,99.0,99.0,99.0,7.313,0.0,0.0,0.001,_                             6 wl:PPN2012   6 gf:PPN2012   6 PPN2012   6 PPN2012   6 PPN2012   6 PPN2012   6 PPN2012   6 PPN2012   6 PPN2012    (48)TiO,"8s2.9s1.3p4.1d1 X,3,2,0,8,5","8s2.11s1.3p4.1d1 C,3,2,0,7,8",0.5,1.0,1.0
TiO 1,4808.3494,-0.467,0.6648215049102701,26.0,3.242619964629788,27.0,99.0,99.0,99.0,7.306,0.0,0.0,0.003,_                             6 wl:PPN2012   6 gf:PPN2012   6 PPN2012   6 PPN2012   6 PPN2012   6 PPN2012   6 PPN2012   6 PPN2012   6 PPN2012    (48)TiO,"8s2.9s1.3p4.1d1 X,3,2,0,26,5","8s2.11s1.3p4.1d1 C,3,2,0,27,8",0.5,1.0,1.0
TiO 1,4808.3537,-1.7280000000000002,0.14940035042893574,6.0,2.7272360054076947,7.0,99.0,99.0,99.0,7.33,0.0,0.0,0.001,_          0.0736738          8 wl:PPN2012   8 gf:PPN2012   8 PPN2012   8 PPN2012   8 PPN2012   8 PPN2012   8 PPN2012   8 PPN2012   8 PPN2012    (49)TiO,"8s2.9s1.3p4.1d1 X,3,2,0,7,1","8s2.11s1.3p4.1d1 C,3,2,0,8,3",0.5,1.0,1.0
TiO 1,4808.3614,-0.084,0.16967495310917652,18.0,2.7475066777888757,19.0,99.0,99.0,99.0,7.3260000000000005,0.0,0.0,0.055,_          0.0741282          6 wl:PPN2012   6 gf:PPN2012   6 PPN2012   6 PPN2012   6 PPN2012   6 PPN2012   6 PPN2012   6 PPN2012   6 PPN2012    (48)TiO,"8s2.9s1.3p4.1d1 X,3,2,0,19,1","8s2.11s1.3p4.1d1 C,3,2,0,20,3",0.5,1.0,1.0
TiO 1,4808.3773,-0.40700000000000003,0.9548310194575841,104.0,3.5217878670056226,103.0,99.0,99.0,99.0,7.256,0.0,0.0,0.001,_          -20.2806           3 wl:PPN2012   3 gf:PPN2012   3 PPN2012   3 PPN2012   3 PPN2012   3 PPN2012   3 PPN2012   3 PPN2012   3 PPN2012    (46)TiO,"8s2.9s1.3p4.1d1 X,3,2,0,103,2","8s2.11s1.3p4.1d1 C,3,2,0,102,5",0.5,1.0,1.0
TiO 1,4808.3784,-1.72,0.1262615020139993,6.0,2.704128574588397,5.0,99.0,99.0,99.0,7.335,0.0,0.0,0.001,_          0.157236           8 wl:PPN2012   8 gf:PPN2012   8 PPN2012   8 PPN2012   8 PPN2012   8 PPN2012   8 PPN2012   8 PPN2012   8 PPN2012    (49)TiO,"8s2.9s1.3p4.1d1 X,3,2,0,5,1","8s2.11s1.3p4.1d1 C,3,2,0,4,3",0.5,1.0,1.0
TiO 1,4808.388,-1.129,0.17049105429218414,23.0,2.748303524226016,24.0,99.0,99.0,99.0,7.325,0.0,0.0,0.005,_          0.0648270          4 wl:PPN2012   4 gf:PPN2012   4 PPN2012   4 PPN2012   4 PPN2012   4 PPN2012   4 PPN2012   4 PPN2012   4 PPN2012    (50)TiO,"8s2.9s1.3p4.1d1 X,3,2,0,23,1","8s2.11s1.3p4.1d1 C,3,2,0,24,3",0.5,1.0,1.0
TiO 1,4808.3893,0.152,1.3126140034695737,104.0,3.8903910263213493,104.0,99.0,99.0,99.0,7.455,0.0,0.0,0.001,_                             6 wl:PPN2012   6 gf:PPN2012   6 PPN2012   6 PPN2012   6 PPN2012   6 PPN2012   6 PPN2012   6 PPN2012   6 PPN2012    (48)TiO,"8s2.9s1.3p4.1d1 X,3,2,+,104,5","8s2.3p4.4p1.1d1 B,3,1,-,104,8",0.5,1.0,1.0
TiO 1,4808.3906,-0.455,0.1285401331887843,8.0,2.70638967439766,7.0,99.0,99.0,99.0,7.332000000000001,0.0,0.0,0.027000000000000003,_          0.136472           6 wl:PPN2012   6 gf:PPN2012   6 PPN2012   6 PPN2012   6 PPN2012   6 PPN2012   6 PPN2012   6 PPN2012   6 PPN2012    (48)TiO,"8s2.9s1.3p4.1d1 X,3,2,0,7,1","8s2.11s1.3p4.1d1 C,3,2,0,6,3",0.5,1.0,1.0
Ce 2,4808.3918,-1.65,1.1944868194879352,1.5,3.7722624785135386,2.5,1.69,0.83,0.19,0.0,0.0,0.0,0.037000000000000005,C-0.108    Ce 2: DREAM data  15 wl:PQWB  15 gf:PQWB  15 PQWB  15 PQWB  15 PQWB  15 PQWB  15 PQWB  15 PQWB  15 PQWB    Ce+,4f.5d.(3P*).6s 4P*,4f.5d.(3H*).6p 4f.5d.(3H*).6p,0.108,1.0,2.0
TiO 1,4808.3927,0.084,0.691732783306371,54.0,3.2695080455825423,53.0,99.0,99.0,99.0,7.297999999999999,0.0,0.0,0.011000000000000001,_                             6 wl:PPN2012   6 gf:PPN2012   6 PPN2012   6 PPN2012   6 PPN2012   6 PPN2012   6 PPN2012   6 PPN2012   6 PPN2012    (48)TiO,"8s2.9s1.3p4.1d1 X,3,2,0,54,4","8s2.11s1.3p4.1d1 C,3,2,0,53,7",0.5,1.0,1.0
TiO 1,4808.394,-1.36,0.15866444966390364,13.0,2.736478035455513,14.0,99.0,99.0,99.0,7.327999999999999,0.0,0.0,0.003,_          0.0729990          8 wl:PPN2012   8 gf:PPN2012   8 PPN2012   8 PPN2012   8 PPN2012   8 PPN2012   8 PPN2012   8 PPN2012   8 PPN2012    (49)TiO,"8s2.9s1.3p4.1d1 X,3,2,0,14,1","8s2.11s1.3p4.1d1 C,3,2,0,15,3",0.5,1.0,1.0
TiO 1,4808.3948,-1.0759999999999998,0.17737862443004465,25.0,2.7551886146799274,26.0,99.0,99.0,99.0,7.325,0.0,0.0,0.005,_          0.0670443          8 wl:PPN2012   8 gf:PPN2012   8 PPN2012   8 PPN2012   8 PPN2012   8 PPN2012   8 PPN2012   8 PPN2012   8 PPN2012    (49)TiO,"8s2.9s1.3p4.1d1 X,3,2,0,25,1","8s2.11s1.3p4.1d1 C,3,2,0,26,3",0.5,1.0,1.0
TiO 1,4808.3979,-0.754,0.33126138794853766,71.0,2.909024115422345,72.0,99.0,99.0,99.0,7.297000000000001,0.0,0.0,0.006,_          -0.0181758         8 wl:PPN2012   8 gf:PPN2012   8 PPN2012   8 PPN2012   8 PPN2012   8 PPN2012   8 PPN2012   8 PPN2012   8 PPN2012    (49)TiO,"8s2.9s1.3p4.1d1 X,3,2,0,70,0","8s2.11s1.3p4.1d1 C,3,2,0,71,2",0.5,1.0,1.0
TiO 1,4808.4078,-1.6780000000000002,0.13850065166094191,7.0,2.7162838613241713,6.0,99.0,99.0,99.0,7.332000000000001,0.0,0.0,0.001,_          0.0301108          8 wl:PPN2012   8 gf:PPN2012   8 PPN2012   8 PPN2012   8 PPN2012   8 PPN2012   8 PPN2012   8 PPN2012   8 PPN2012    (49)TiO,"8s2.9s1.3p4.1d1 X,3,2,0,7,1","8s2.11s1.3p4.1d1 C,3,2,0,6,3",0.5,1.0,1.0
S 1,4808.4211,-2.334,8.045206126207978,1.0,10.622966039240502,2.0,1.5,1.17,1.0,8.35,-4.99,-7.42,0.005,_      A   Kurucz S I 2004   45 wl:K04  45 gf:K04  45 K04  45 K04  45 K04  45 K04  45 K04  45 K04  45 K04    S,3s2.3p3.(4S*).4p 3P,3s2.3p3.(2D*).5s 3D*,0.5,1.0,1.0
S 1,4808.4211,-2.7760000000000002,8.045206126207978,1.0,10.622966039240502,1.0,1.5,0.5,1.0,8.35,-4.98,-7.42,0.002,_      A   Kurucz S I 2004   45 wl:K04  45 gf:K04  45 K04  45 K04  45 K04  45 K04  45 K04  45 K04  45 K04    S,3s2.3p3.(4S*).4p 3P,3s2.3p3.(2D*).5s 3D*,0.5,1.0,1.0
TiO 1,4808.4275,0.23,1.3071562190969388,93.0,3.884912784556132,93.0,99.0,99.0,99.0,7.522,0.0,0.0,0.001,_                             6 wl:PPN2012   6 gf:PPN2012   6 PPN2012   6 PPN2012   6 PPN2012   6 PPN2012   6 PPN2012   6 PPN2012   6 PPN2012    (48)TiO,"8s2.9s1.3p4.1d1 X,3,2,-,94,6","8s2.3p4.4p1.1d1 B,3,1,+,94,9",0.5,1.0,1.0
TiO 1,4808.4334,-0.9129999999999999,0.18791071005253956,24.0,2.765705326261936,25.0,99.0,99.0,99.0,7.324,0.0,0.0,0.008,_          0.0767611          3 wl:PPN2012   3 gf:PPN2012   3 PPN2012   3 PPN2012   3 PPN2012   3 PPN2012   3 PPN2012   3 PPN2012   3 PPN2012    (46)TiO,"8s2.9s1.3p4.1d1 X,3,2,0,25,1","8s2.11s1.3p4.1d1 C,3,2,0,26,3",0.5,1.0,1.0
Sm 2,4808.45,-1.96,1.3041277810895335,1.5,3.8818708322712023,1.5,1.34,1.9,1.62,0.0,0.0,0.0,0.009000000000000001,E 0.07     Wisconsin REE ex  11 wl:LD-HS  11 gf:LD-HS  11 LD-HS  11 LD-HS  11 LD-HS  11 LD-HS  11 LD-HS  11 LD-HS  11 LD-HS    Sm+,4f6.(7F).5d 8G,* *,1.1748975549395295,1.0,2.0
TiO 1,4808.45,-0.7559999999999999,0.7596956758279417,78.0,3.337724398999001,77.0,99.0,99.0,99.0,7.2829999999999995,0.0,0.0,0.001,_          0.530109           8 wl:PPN2012   8 gf:PPN2012   8 PPN2012   8 PPN2012   8 PPN2012   8 PPN2012   8 PPN2012   8 PPN2012   8 PPN2012    (49)TiO,"8s2.9s1.3p4.1d1 X,3,2,0,77,3","8s2.11s1.3p4.1d1 C,3,2,0,76,6",0.5,1.0,1.0
Mo 1,4808.453,-1.798,2.554996290392812,0.0,5.132739961495467,1.0,0.0,1.07,1.07,0.0,0.0,0.0,0.004,_          Cu 1 - Ba 2 Bell  17 wl:WBb  17 gf:WBb  17 WBb  17 WBb  17 WBb  17 WBb  17 WBb  17 WBb  17 WBb    Mo,4d4.5s2 a3P,* *,0.5,1.0,1.0
TiO 1,4808.4647,-0.815,0.1856216518067473,30.0,2.7633719436655486,31.0,99.0,99.0,99.0,7.3229999999999995,0.0,0.0,0.01,_          0.0255668          3 wl:PPN2012   3 gf:PPN2012   3 PPN2012   3 PPN2012   3 PPN2012   3 PPN2012   3 PPN2012   3 PPN2012   3 PPN2012    (46)TiO,"8s2.9s1.3p4.1d1 X,3,2,0,29,1","8s2.11s1.3p4.1d1 C,3,2,0,30,3",0.5,1.0,1.0
TiO 1,4808.4724,0.374,0.7830254723054019,77.0,3.3606919756435527,76.0,99.0,99.0,99.0,7.2829999999999995,0.0,0.0,0.015,_          -0.123083          6 wl:PPN2012   6 gf:PPN2012   6 PPN2012   6 PPN2012   6 PPN2012   6 PPN2012   6 PPN2012   6 PPN2012   6 PPN2012    (48)TiO,"8s2.9s1.3p4.1d1 X,3,2,0,78,3","8s2.11s1.3p4.1d1 C,3,2,0,77,6",0.5,1.0,1.0
TiO 1,4808.4751,-0.40399999999999997,0.98521965784329,47.0,3.5629507445499025,47.0,99.0,99.0,99.0,7.5,0.0,0.0,0.001,_                             6 wl:PPN2012   6 gf:PPN2012   6 PPN2012   6 PPN2012   6 PPN2012   6 PPN2012   6 PPN2012   6 PPN2012   6 PPN2012    (48)TiO,"8s2.9s1.3p4.1d1 X,3,2,+,46,7","8s2.3p4.4p1.1d1 B,3,1,-,46,11",0.5,1.0,1.0
TiO 1,4808.4777,0.091,0.18487648198311238,27.0,2.7626435365054114,28.0,99.0,99.0,99.0,7.324,0.0,0.0,0.076,_          0.0697912          6 wl:PPN2012   6 gf:PPN2012   6 PPN2012   6 PPN2012   6 PPN2012   6 PPN2012   6 PPN2012   6 PPN2012   6 PPN2012    (48)TiO,"8s2.9s1.3p4.1d1 X,3,2,0,27,1","8s2.11s1.3p4.1d1 C,3,2,0,28,3",0.5,1.0,1.0
TiO 1,4808.4795,-1.3519999999999999,0.13137387881090226,10.0,2.709165804563214,9.0,99.0,99.0,99.0,7.33,0.0,0.0,0.003,_          0.118021           2 wl:PPN2012   2 gf:PPN2012   2 PPN2012   2 PPN2012   2 PPN2012   2 PPN2012   2 PPN2012   2 PPN2012   2 PPN2012    (47)TiO,"8s2.9s1.3p4.1d1 X,3,2,0,9,1","8s2.11s1.3p4.1d1 C,3,2,0,8,3",0.5,1.0,1.0
TiO 1,4808.4895,-0.419,0.14107058370768294,9.0,2.71881028731602,8.0,99.0,99.0,99.0,7.331,0.0,0.0,0.027999999999999997,_          0.0304614          6 wl:PPN2012   6 gf:PPN2012   6 PPN2012   6 PPN2012   6 PPN2012   6 PPN2012   6 PPN2012   6 PPN2012   6 PPN2012    (48)TiO,"8s2.9s1.3p4.1d1 X,3,2,0,9,1","8s2.11s1.3p4.1d1 C,3,2,0,8,3",0.5,1.0,1.0
TiO 1,4808.4921,-0.565,0.36080033783214127,72.0,2.9385509520498556,73.0,99.0,99.0,99.0,7.296,0.0,0.0,0.009000000000000001,_          0.0535376          3 wl:PPN2012   3 gf:PPN2012   3 PPN2012   3 PPN2012   3 PPN2012   3 PPN2012   3 PPN2012   3 PPN2012   3 PPN2012    (46)TiO,"8s2.9s1.3p4.1d1 X,3,2,0,72,0","8s2.11s1.3p4.1d1 C,3,2,0,73,2",0.5,1.0,1.0
TiO 1,4808.4963,-1.328,0.16051679837094682,14.0,2.7382756823346326,15.0,99.0,99.0,99.0,7.327000000000001,0.0,0.0,0.003,_          0.0731307          8 wl:PPN2012   8 gf:PPN2012   8 PPN2012   8 PPN2012   8 PPN2012   8 PPN2012   8 PPN2012   8 PPN2012   8 PPN2012    (49)TiO,"8s2.9s1.3p4.1d1 X,3,2,0,15,1","8s2.11s1.3p4.1d1 C,3,2,0,16,3",0.5,1.0,1.0
TiO 1,4808.4975,-0.6970000000000001,0.20925819758716832,54.0,2.7870184577754458,53.0,99.0,99.0,99.0,7.312,0.0,0.0,0.011000000000000001,_          0.0769462          3 wl:PPN2012   3 gf:PPN2012   3 PPN2012   3 PPN2012   3 PPN2012   3 PPN2012   3 PPN2012   3 PPN2012   3 PPN2012    (46)TiO,"8s2.9s1.3p4.1d1 X,3,2,0,54,0","8s2.11s1.3p4.1d1 C,3,2,0,53,2",0.5,1.0,1.0
Ce 1,4808.506,-0.395,0.5477148224595887,5.0,3.125429109307444,4.0,1.18,1.33,0.87,0.0,0.0,0.0,0.039,_          La1 to Lu 2 Bell   1 wl:CB   1 gf:CB   1 CB   1 CB   1 CB   1 CB   1 CB   1 CB   1 CB    Ce,4f.(2F*)\ .5d2.(3F).6s.\ (4F)      *, ,0.5,1.0,1.0