species,wlcent,gflog,excit,j_lo,e_upp,j_up,lande_lower,lande_upper,lande,gamrad,gamqst,gamvw,depth,reference,term_lower,term_upper,error,atom_number,ionization
TiO 1,4803.8782,0.342,1.3039000221187809,102.0,3.8840975884577658,101.0,99.0,99.0,99.0,7.245,0.0,0.0,0.002,_                             6 wl:PPN2012   6 gf:PPN2012   6 PPN2012   6 PPN2012   6 PPN2012   6 PPN2012   6 PPN2012   6 PPN2012   6 PPN2012    (48)TiO,"8s2.9s1.3p4.1d1 X,3,2,0,103,5","8s2.11s1.3p4.1d1 C,3,2,0,102,9",0.5,1.0,1.0
TiO 1,4803.8804,-1.153,0.4275726844959249,4.0,3.0077692217660705,5.0,99.0,99.0,99.0,7.416,0.0,0.0,0.002,_                             6 wl:PPN2012   6 gf:PPN2012   6 PPN2012   6 PPN2012   6 PPN2012   6 PPN2012   6 PPN2012   6 PPN2012   6 PPN2012    (48)TiO,"8s2.9s1.3p4.1d1 a,1,2,0,4,0","8s2.11s1.3p4.1d1 f,1,2,0,5,2",0.5,1.0,1.0
TiO 1,4803.8861,0.22,0.1795098011987784,50.0,2.7597465217473243,49.0,99.0,99.0,99.0,7.315,0.0,0.0,0.10400000000000001,_          0.0805595          6 wl:PPN2012   6 gf:PPN2012   6 PPN2012   6 PPN2012   6 PPN2012   6 PPN2012   6 PPN2012   6 PPN2012   6 PPN2012    (48)TiO,"8s2.9s1.3p4.1d1 X,3,2,0,50,0","8s2.11s1.3p4.1d1 C,3,2,0,49,2",0.5,1.0,1.0
CH 1,4803.89,-2.873,1.0150001041467258,5.5,3.595191223307442,6.5,99.0,99.0,99.0,6.27,0.0,0.0,0.002,_                            37 wl:JLIY  37 gf:JLIY  37 JLIY  37 JLIY  37 JLIY  37 JLIY  37 JLIY  37 JLIY  37 JLIY    (12)CH,"1s2.2s2.3s2.1p1 X,2,1,e,5,3","1s2.2s2.3s1.1p2 A,2,2,e,6,2",0.5,1.0,1.0
TiO 1,4803.8952,-1.452,0.12784337919426142,7.0,2.708108591311386,8.0,99.0,99.0,99.0,7.331,0.0,0.0,0.003,_          0.142595           2 wl:PPN2012   2 gf:PPN2012   2 PPN2012   2 PPN2012   2 PPN2012   2 PPN2012   2 PPN2012   2 PPN2012   2 PPN2012    (47)TiO,"8s2.9s1.3p4.1d1 X,3,2,0,6,1","8s2.11s1.3p4.1d1 C,3,2,0,7,3",0.5,1.0,1.0
V 1,4803.8961,-3.321,2.379173680039437,1.5,4.959361699595216,2.5,1.37,1.33,1.3,8.24,-6.0,-7.69,0.002,_          Kurucz V I 2009   19 wl:K09  19 gf:K09  19 K09  19 K09  19 K09  19 K09  19 K09  19 K09  19 K09    V,3d4.(3P2).4s b2P,3d4.(a3F).4p s4D*,0.5,1.0,1.0
TiO 1,4803.9008,-0.5770000000000001,0.7738561589893999,77.0,3.3530402908966837,76.0,99.0,99.0,99.0,7.284,0.0,0.0,0.002,_          -1.86523           3 wl:PPN2012   3 gf:PPN2012   3 PPN2012   3 PPN2012   3 PPN2012   3 PPN2012   3 PPN2012   3 PPN2012   3 PPN2012    (46)TiO,"8s2.9s1.3p4.1d1 X,3,2,0,77,3","8s2.11s1.3p4.1d1 C,3,2,0,76,6",0.5,1.0,1.0
TiO 1,4803.9118,-1.272,0.1328121574936545,11.0,2.713046137991436,12.0,99.0,99.0,99.0,7.329,0.0,0.0,0.004,_          0.101136           2 wl:PPN2012   2 gf:PPN2012   2 PPN2012   2 PPN2012   2 PPN2012   2 PPN2012   2 PPN2012   2 PPN2012   2 PPN2012    (47)TiO,"8s2.9s1.3p4.1d1 X,3,2,0,10,1","8s2.11s1.3p4.1d1 C,3,2,0,11,3",0.5,1.0,1.0
TiO 1,4803.9158,-0.456,0.4541474697800917,20.0,3.0343249010854074,21.0,99.0,99.0,99.0,7.41,0.0,0.0,0.008,_                             6 wl:PPN2012   6 gf:PPN2012   6 PPN2012   6 PPN2012   6 PPN2012   6 PPN2012   6 PPN2012   6 PPN2012   6 PPN2012    (48)TiO,"8s2.9s1.3p4.1d1 a,1,2,0,20,0","8s2.11s1.3p4.1d1 f,1,2,0,21,2",0.5,1.0,1.0
TiO 1,4803.9196,-0.723,0.1881133126296255,51.0,2.768331559532748,50.0,99.0,99.0,99.0,7.314,0.0,0.0,0.012,_          0.0796804          3 wl:PPN2012   3 gf:PPN2012   3 PPN2012   3 PPN2012   3 PPN2012   3 PPN2012   3 PPN2012   3 PPN2012   3 PPN2012    (46)TiO,"8s2.9s1.3p4.1d1 X,3,2,0,51,0","8s2.11s1.3p4.1d1 C,3,2,0,50,2",0.5,1.0,1.0
TiO 1,4803.9516,-1.511,0.1269280162627592,6.0,2.70716941101555,7.0,99.0,99.0,99.0,7.332000000000001,0.0,0.0,0.002,_          0.154696           2 wl:PPN2012   2 gf:PPN2012   2 PPN2012   2 PPN2012   2 PPN2012   2 PPN2012   2 PPN2012   2 PPN2012   2 PPN2012    (47)TiO,"8s2.9s1.3p4.1d1 X,3,2,0,5,1","8s2.11s1.3p4.1d1 C,3,2,0,6,3",0.5,1.0,1.0
TiO 1,4803.967,-0.45899999999999996,0.9240033654270561,102.0,3.494032392607368,101.0,99.0,99.0,99.0,7.2589999999999995,0.0,0.0,0.001,_          -18.9185           2 wl:PPN2012   2 gf:PPN2012   2 PPN2012   2 PPN2012   2 PPN2012   2 PPN2012   2 PPN2012   2 PPN2012   2 PPN2012    (47)TiO,"8s2.9s1.3p4.1d1 X,3,2,0,101,2","8s2.11s1.3p4.1d1 C,3,2,0,100,5",0.5,1.0,1.0
TiO 1,4803.9728,-0.435,0.9616189063006785,113.0,3.538524369837918,112.0,99.0,99.0,99.0,7.245,0.0,0.0,0.001,_          -6.04280           3 wl:PPN2012   3 gf:PPN2012   3 PPN2012   3 PPN2012   3 PPN2012   3 PPN2012   3 PPN2012   3 PPN2012   3 PPN2012    (46)TiO,"8s2.9s1.3p4.1d1 X,3,2,0,112,1","8s2.11s1.3p4.1d1 C,3,2,0,111,4",0.5,1.0,1.0
TiO 1,4803.9765,-1.237,0.13438114031737972,12.0,2.7145756070514273,13.0,99.0,99.0,99.0,7.329,0.0,0.0,0.004,_          0.0924209          2 wl:PPN2012   2 gf:PPN2012   2 PPN2012   2 PPN2012   2 PPN2012   2 PPN2012   2 PPN2012   2 PPN2012   2 PPN2012    (47)TiO,"8s2.9s1.3p4.1d1 X,3,2,0,11,1","8s2.11s1.3p4.1d1 C,3,2,0,12,3",0.5,1.0,1.0
Ce 2,4803.9813,-0.87,1.4118986890406897,3.5,3.992040958427603,4.5,1.34,1.2,0.94,0.0,0.0,0.0,0.098,C 0.080    Ce 2: DREAM data  15 wl:PQWB  15 gf:PQWB  15 PQWB  15 PQWB  15 PQWB  15 PQWB  15 PQWB  15 PQWB  15 PQWB    Ce+,4f.(2F*).5d2.(3P) 4D*,4f2.(1I).5d 4f2.(1I).5d,0.08,1.0,2.0
TiO 1,4803.9832,0.114,1.2069296751713214,87.0,3.7870709030909757,86.0,99.0,99.0,99.0,7.257000000000001,0.0,0.0,0.002,_                             6 wl:PPN2012   6 gf:PPN2012   6 PPN2012   6 PPN2012   6 PPN2012   6 PPN2012   6 PPN2012   6 PPN2012   6 PPN2012    (48)TiO,"8s2.9s1.3p4.1d1 X,3,2,0,86,6","8s2.11s1.3p4.1d1 C,3,2,0,85,10",0.5,1.0,1.0
TiO 1,4803.9833,-0.88,0.6824665639416263,52.0,3.2626078290565395,51.0,99.0,99.0,99.0,7.2989999999999995,0.0,0.0,0.001,_                             3 wl:PPN2012   3 gf:PPN2012   3 PPN2012   3 PPN2012   3 PPN2012   3 PPN2012   3 PPN2012   3 PPN2012   3 PPN2012    (46)TiO,"8s2.9s1.3p4.1d1 X,3,2,0,52,4","8s2.11s1.3p4.1d1 C,3,2,0,51,7",0.5,1.0,1.0
TiO 1,4803.9915,-1.0070000000000001,0.16108676612513675,19.0,2.741257006346999,20.0,99.0,99.0,99.0,7.327000000000001,0.0,0.0,0.006999999999999999,_          0.0622029          3 wl:PPN2012   3 gf:PPN2012   3 PPN2012   3 PPN2012   3 PPN2012   3 PPN2012   3 PPN2012   3 PPN2012   3 PPN2012    (46)TiO,"8s2.9s1.3p4.1d1 X,3,2,0,19,1","8s2.11s1.3p4.1d1 C,3,2,0,20,3",0.5,1.0,1.0
TiO 1,4803.992,-0.772,0.3041452132676977,68.0,2.884273150081383,69.0,99.0,99.0,99.0,7.3,0.0,0.0,0.006,_          -0.0160172         8 wl:PPN2012   8 gf:PPN2012   8 PPN2012   8 PPN2012   8 PPN2012   8 PPN2012   8 PPN2012   8 PPN2012   8 PPN2012    (49)TiO,"8s2.9s1.3p4.1d1 X,3,2,0,67,0","8s2.11s1.3p4.1d1 C,3,2,0,68,2",0.5,1.0,1.0
MgH 1,4804.0039,-2.169,0.0014239585079444115,1.5,2.581554077443505,1.5,99.0,99.0,99.0,7.39,0.0,0.0,0.021,_                            18 wl:KMGH  18 gf:KMGH  18 KMGH  18 KMGH  18 KMGH  18 KMGH  18 KMGH  18 KMGH  18 KMGH    (24)MgH,"4s2.5s1 X,2,0,e,1,0","4s2.2p1 A,2,1,f,1,1",0.5,1.0,1.0
Fe 1,4804.0073,-3.988,4.190860777648724,2.0,6.770989036821323,2.0,1.5,2.0,1.75,8.33,-4.79,-7.34,0.02,_          Kurucz Fe I 2014   5 wl:K14   5 gf:K14   5 K14   5 K14   5 K14   5 K14   5 K14   5 K14   5 K14    Fe,3d7.(4F).4p y5D*,3d6.(5D).4s\ (6D).6s g7D,0.5,1.0,1.0
La 2,4804.0078,-2.084,0.2349523743221784,1.0,2.8150808173633424,1.0,0.5,1.43,0.96,0.0,0.0,0.0,0.713,"E 0.03     Wisconsin REE ex  11 wl:LBS  11 gf:LBS  11 LBS  11 LBS  11 LBS  11 LBS  11 LBS  11 LBS  11 LBS   hfs:HHW,FRSE La+",5d.6s a3D,4f.5d z3P*,1.0715193052376064,1.0,2.0
TiO 1,4804.0094,-1.151,0.1513505598630421,15.0,2.7315112285048597,16.0,99.0,99.0,99.0,7.327999999999999,0.0,0.0,0.005,_          0.0623608          2 wl:PPN2012   2 gf:PPN2012   2 PPN2012   2 PPN2012   2 PPN2012   2 PPN2012   2 PPN2012   2 PPN2012   2 PPN2012    (47)TiO,"8s2.9s1.3p4.1d1 X,3,2,0,15,1","8s2.11s1.3p4.1d1 C,3,2,0,16,3",0.5,1.0,1.0
La 2,4804.0101,-2.28,0.2349523743221784,1.0,2.8150795853323722,1.0,0.5,1.43,0.96,0.0,0.0,0.0,0.713,"E 0.03     Wisconsin REE ex  11 wl:LBS  11 gf:LBS  11 LBS  11 LBS  11 LBS  11 LBS  11 LBS  11 LBS  11 LBS   hfs:HHW,FRSE La+",5d.6s a3D,4f.5d z3P*,1.0715193052376064,1.0,2.0
CH 1,4804.021,-2.425,1.197918330121316,18.5,3.778039522194659,18.5,99.0,99.0,99.0,6.27,0.0,0.0,0.004,_                            37 wl:JLIY  37 gf:JLIY  37 JLIY  37 JLIY  37 JLIY  37 JLIY  37 JLIY  37 JLIY  37 JLIY    (12)CH,"1s2.2s2.3s2.1p1 X,2,1,e,18,2","1s2.2s2.3s1.1p2 A,2,2,f,18,1",0.5,1.0,1.0
TiO 1,4804.0236,-1.026,0.1469995824212229,18.0,2.727147480690701,19.0,99.0,99.0,99.0,7.327000000000001,0.0,0.0,0.006999999999999999,_          0.0526443          3 wl:PPN2012   3 gf:PPN2012   3 PPN2012   3 PPN2012   3 PPN2012   3 PPN2012   3 PPN2012   3 PPN2012   3 PPN2012    (46)TiO,"8s2.9s1.3p4.1d1 X,3,2,0,17,1","8s2.11s1.3p4.1d1 C,3,2,0,18,3",0.5,1.0,1.0
TiO 1,4804.0273,-0.925,0.6669663819328244,52.0,3.2470840156597003,51.0,99.0,99.0,99.0,7.3,0.0,0.0,0.001,_                             2 wl:PPN2012   2 gf:PPN2012   2 PPN2012   2 PPN2012   2 PPN2012   2 PPN2012   2 PPN2012   2 PPN2012   2 PPN2012    (47)TiO,"8s2.9s1.3p4.1d1 X,3,2,0,51,4","8s2.11s1.3p4.1d1 C,3,2,0,50,7",0.5,1.0,1.0
TiO 1,4804.0322,-1.5819999999999999,0.126143407065909,5.0,2.706348387659902,6.0,99.0,99.0,99.0,7.332999999999999,0.0,0.0,0.002,_          0.167526           2 wl:PPN2012   2 gf:PPN2012   2 PPN2012   2 PPN2012   2 PPN2012   2 PPN2012   2 PPN2012   2 PPN2012   2 PPN2012    (47)TiO,"8s2.9s1.3p4.1d1 X,3,2,0,4,1","8s2.11s1.3p4.1d1 C,3,2,0,5,3",0.5,1.0,1.0
TiO 1,4804.0355,-1.2990000000000002,0.42704095346823473,3.0,3.007154136162421,4.0,99.0,99.0,99.0,7.416,0.0,0.0,0.001,_                             6 wl:PPN2012   6 gf:PPN2012   6 PPN2012   6 PPN2012   6 PPN2012   6 PPN2012   6 PPN2012   6 PPN2012   6 PPN2012    (48)TiO,"8s2.9s1.3p4.1d1 a,1,2,0,3,0","8s2.11s1.3p4.1d1 f,1,2,0,4,2",0.5,1.0,1.0
TiO 1,4804.0381,-0.5479999999999999,0.8345793538538753,70.0,3.4146911851203092,70.0,99.0,99.0,99.0,7.361000000000001,0.0,0.0,0.002,_                             6 wl:PPN2012   6 gf:PPN2012   6 PPN2012   6 PPN2012   6 PPN2012   6 PPN2012   6 PPN2012   6 PPN2012   6 PPN2012    (48)TiO,"8s2.9s1.3p4.1d1 X,3,2,-,71,4","8s2.3p4.4p1.1d1 B,3,1,+,71,8",0.5,1.0,1.0
TiO 1,4804.0424,0.365,0.7632352510878374,75.0,3.3433075313952787,74.0,99.0,99.0,99.0,7.285,0.0,0.0,0.016,_          -0.0692628         6 wl:PPN2012   6 gf:PPN2012   6 PPN2012   6 PPN2012   6 PPN2012   6 PPN2012   6 PPN2012   6 PPN2012   6 PPN2012    (48)TiO,"8s2.9s1.3p4.1d1 X,3,2,0,76,3","8s2.11s1.3p4.1d1 C,3,2,0,75,6",0.5,1.0,1.0
La 2,4804.0465,-2.28,0.23497317019162006,1.0,2.8150808173633424,1.0,0.5,1.43,0.96,0.0,0.0,0.0,0.713,"E 0.03     Wisconsin REE ex  11 wl:LBS  11 gf:LBS  11 LBS  11 LBS  11 LBS  11 LBS  11 LBS  11 LBS  11 LBS   hfs:HHW,FRSE La+",5d.6s a3D,4f.5d z3P*,1.0715193052376064,1.0,2.0
La 2,4804.0488,-3.465,0.23497317019162006,1.0,2.8150795853323722,1.0,0.5,1.43,0.96,0.0,0.0,0.0,0.713,"E 0.03     Wisconsin REE ex  11 wl:LBS  11 gf:LBS  11 LBS  11 LBS  11 LBS  11 LBS  11 LBS  11 LBS  11 LBS   hfs:HHW,FRSE La+",5d.6s a3D,4f.5d z3P*,1.0715193052376064,1.0,2.0
La 2,4804.051,-2.2840000000000003,0.23497317019162006,1.0,2.815078395456029,1.0,0.5,1.43,0.96,0.0,0.0,0.0,0.713,"E 0.03     Wisconsin REE ex  11 wl:LBS  11 gf:LBS  11 LBS  11 LBS  11 LBS  11 LBS  11 LBS  11 LBS  11 LBS   hfs:HHW,FRSE La+",5d.6s a3D,4f.5d z3P*,1.0715193052376064,1.0,2.0
TiO 1,4804.0605,-0.628,0.31628641539863894,69.0,2.896377231343602,70.0,99.0,99.0,99.0,7.2989999999999995,0.0,0.0,0.009000000000000001,_          -0.0167395         2 wl:PPN2012   2 gf:PPN2012   2 PPN2012   2 PPN2012   2 PPN2012   2 PPN2012   2 PPN2012   2 PPN2012   2 PPN2012    (47)TiO,"8s2.9s1.3p4.1d1 X,3,2,0,68,0","8s2.11s1.3p4.1d1 C,3,2,0,69,2",0.5,1.0,1.0
TiO 1,4804.0655,-1.204,0.1360808148836582,13.0,2.7162231090674105,14.0,99.0,99.0,99.0,7.327999999999999,0.0,0.0,0.005,_          0.0843305          2 wl:PPN2012   2 gf:PPN2012   2 PPN2012   2 PPN2012   2 PPN2012   2 PPN2012   2 PPN2012   2 PPN2012   2 PPN2012    (47)TiO,"8s2.9s1.3p4.1d1 X,3,2,0,12,1","8s2.11s1.3p4.1d1 C,3,2,0,13,3",0.5,1.0,1.0
TiO 1,4804.0655,-0.764,0.7400734160026899,76.0,3.320463814964,75.0,99.0,99.0,99.0,7.285,0.0,0.0,0.001,_          0.546240           8 wl:PPN2012   8 gf:PPN2012   8 PPN2012   8 PPN2012   8 PPN2012   8 PPN2012   8 PPN2012   8 PPN2012   8 PPN2012    (49)TiO,"8s2.9s1.3p4.1d1 X,3,2,0,75,3","8s2.11s1.3p4.1d1 C,3,2,0,74,6",0.5,1.0,1.0
TiO 1,4804.0758,-0.435,0.4569364695053428,21.0,3.037028004558651,22.0,99.0,99.0,99.0,7.41,0.0,0.0,0.008,_                             6 wl:PPN2012   6 gf:PPN2012   6 PPN2012   6 PPN2012   6 PPN2012   6 PPN2012   6 PPN2012   6 PPN2012   6 PPN2012    (48)TiO,"8s2.9s1.3p4.1d1 a,1,2,0,21,0","8s2.11s1.3p4.1d1 f,1,2,0,22,2",0.5,1.0,1.0
La 2,4804.0797,-2.2840000000000003,0.23498975667357339,1.0,2.8150795853323722,1.0,0.5,1.43,0.96,0.0,0.0,0.0,0.713,"E 0.03     Wisconsin REE ex  11 wl:LBS  11 gf:LBS  11 LBS  11 LBS  11 LBS  11 LBS  11 LBS  11 LBS  11 LBS   hfs:HHW,FRSE La+",5d.6s a3D,4f.5d z3P*,1.0715193052376064,1.0,2.0
La 2,4804.0819,-2.539,0.23498975667357339,1.0,2.815078395456029,1.0,0.5,1.43,0.96,0.0,0.0,0.0,0.713,"E 0.03     Wisconsin REE ex  11 wl:LBS  11 gf:LBS  11 LBS  11 LBS  11 LBS  11 LBS  11 LBS  11 LBS  11 LBS   hfs:HHW,FRSE La+",5d.6s a3D,4f.5d z3P*,1.0715193052376064,1.0,2.0
TiO 1,4804.0873,-0.444,0.8606733036234133,94.0,3.4406209922108166,93.0,99.0,99.0,99.0,7.268,0.0,0.0,0.002,_          -0.256255          3 wl:PPN2012   3 gf:PPN2012   3 PPN2012   3 PPN2012   3 PPN2012   3 PPN2012   3 PPN2012   3 PPN2012   3 PPN2012    (46)TiO,"8s2.9s1.3p4.1d1 X,3,2,0,95,2","8s2.11s1.3p4.1d1 C,3,2,0,94,5",0.5,1.0,1.0
TiO 1,4804.089,0.271,1.015620198711953,125.0,3.5954215859463416,124.0,99.0,99.0,99.0,7.228,0.0,0.0,0.005,_          -0.527064          6 wl:PPN2012   6 gf:PPN2012   6 PPN2012   6 PPN2012   6 PPN2012   6 PPN2012   6 PPN2012   6 PPN2012   6 PPN2012    (48)TiO,"8s2.9s1.3p4.1d1 X,3,2,0,124,0","8s2.11s1.3p4.1d1 C,3,2,0,123,3",0.5,1.0,1.0
Ce 2,4807.0048,-2.37,0.45918712984517845,3.5,3.037706570071405,2.5,1.09,1.3,0.81,0.0,0.0,0.0,0.08800000000000001,C 0.007    Ce 2: DREAM data  15 wl:PQWB  15 gf:PQWB  15 PQWB  15 PQWB  15 PQWB  15 PQWB  15 PQWB  15 PQWB  15 PQWB    Ce+,4f.(2F*).5d2.(3F) *,4f2.(1D).5d 4f2.(1D).5d,0.007,1.0,2.0
CH 1,4807.008,-2.448,1.1419413247265158,16.5,3.7204589051897803,16.5,99.0,99.0,99.0,6.27,0.0,0.0,0.005,_                            37 wl:JLIY  37 gf:JLIY  37 JLIY  37 JLIY  37 JLIY  37 JLIY  37 JLIY  37 JLIY  37 JLIY    (12)CH,"1s2.2s2.3s2.1p1 X,2,1,e,17,2","1s2.2s2.3s1.1p2 A,2,2,f,17,1",0.5,1.0,1.0
TiO 1,4807.0169,-1.159,0.16330157023506411,15.0,2.7418538662736203,16.0,99.0,99.0,99.0,7.327000000000001,0.0,0.0,0.005,_          0.0733120          2 wl:PPN2012   2 gf:PPN2012   2 PPN2012   2 PPN2012   2 PPN2012   2 PPN2012   2 PPN2012   2 PPN2012   2 PPN2012    (47)TiO,"8s2.9s1.3p4.1d1 X,3,2,0,16,1","8s2.11s1.3p4.1d1 C,3,2,0,17,3",0.5,1.0,1.0
TiO 1,4807.0238,-0.858,0.17419616085412218,27.0,2.7527198413399026,28.0,99.0,99.0,99.0,7.324,0.0,0.0,0.009000000000000001,_          0.0269500          3 wl:PPN2012   3 gf:PPN2012   3 PPN2012   3 PPN2012   3 PPN2012   3 PPN2012   3 PPN2012   3 PPN2012   3 PPN2012    (46)TiO,"8s2.9s1.3p4.1d1 X,3,2,0,26,1","8s2.11s1.3p4.1d1 C,3,2,0,27,3",0.5,1.0,1.0
TiO 1,4807.024,-0.935,0.16666438122462665,25.0,2.745189413138159,26.0,99.0,99.0,99.0,7.325,0.0,0.0,0.008,_          0.0296643          2 wl:PPN2012   2 gf:PPN2012   2 PPN2012   2 PPN2012   2 PPN2012   2 PPN2012   2 PPN2012   2 PPN2012   2 PPN2012    (47)TiO,"8s2.9s1.3p4.1d1 X,3,2,0,24,1","8s2.11s1.3p4.1d1 C,3,2,0,25,3",0.5,1.0,1.0
TiO 1,4807.0243,-1.251,0.14294686136483786,17.0,2.721486858171005,18.0,99.0,99.0,99.0,7.327000000000001,0.0,0.0,0.004,_          0.0578707          4 wl:PPN2012   4 gf:PPN2012   4 PPN2012   4 PPN2012   4 PPN2012   4 PPN2012   4 PPN2012   4 PPN2012   4 PPN2012    (50)TiO,"8s2.9s1.3p4.1d1 X,3,2,0,16,1","8s2.11s1.3p4.1d1 C,3,2,0,17,3",0.5,1.0,1.0
TiO 1,4807.0251,-0.436,0.8686127432941908,96.0,3.446857149375169,95.0,99.0,99.0,99.0,7.266,0.0,0.0,0.002,_          -0.492451          3 wl:PPN2012   3 gf:PPN2012   3 PPN2012   3 PPN2012   3 PPN2012   3 PPN2012   3 PPN2012   3 PPN2012   3 PPN2012    (46)TiO,"8s2.9s1.3p4.1d1 X,3,2,0,96,2","8s2.11s1.3p4.1d1 C,3,2,0,95,5",0.5,1.0,1.0
CH 1,4807.05,-2.435,1.1420141034504308,17.5,3.720509366758151,17.5,99.0,99.0,99.0,6.27,0.0,0.0,0.005,_                            37 wl:JLIY  37 gf:JLIY  37 JLIY  37 JLIY  37 JLIY  37 JLIY  37 JLIY  37 JLIY  37 JLIY    (12)CH,"1s2.2s2.3s2.1p1 X,2,1,f,17,2","1s2.2s2.3s1.1p2 A,2,2,e,17,1",0.5,1.0,1.0
Nb 1,4807.052,-1.36,1.5004716358871766,4.5,4.078966031305514,3.5,0.93,1.17,0.51,0.0,0.0,0.0,0.018000000000000002,_          Cu 1 - Ba 2 Bell  17 wl:CB  17 gf:CB  17 CB  17 CB  17 CB  17 CB  17 CB  17 CB  17 CB    Nb,4d3.5s2 a2H,4d4.(a3G).5p v2F*,0.5,1.0,1.0
CH 1,4807.055,-2.87,0.7285783823137039,6.5,3.307071041953277,7.5,99.0,99.0,99.0,6.27,0.0,0.0,0.006,_                            37 wl:JLIY  37 gf:JLIY  37 JLIY  37 JLIY  37 JLIY  37 JLIY  37 JLIY  37 JLIY  37 JLIY    (12)CH,"1s2.2s2.3s2.1p1 X,2,1,e,6,2","1s2.2s2.3s1.1p2 A,2,2,e,7,1",0.5,1.0,1.0
TiO 1,4807.0555,-0.615,0.33467783450192573,71.0,2.913160352234146,72.0,99.0,99.0,99.0,7.297000000000001,0.0,0.0,0.009000000000000001,_          -0.0181758         2 wl:PPN2012   2 gf:PPN2012   2 PPN2012   2 PPN2012   2 PPN2012   2 PPN2012   2 PPN2012   2 PPN2012   2 PPN2012    (47)TiO,"8s2.9s1.3p4.1d1 X,3,2,0,70,0","8s2.11s1.3p4.1d1 C,3,2,0,71,2",0.5,1.0,1.0
TiO 1,4807.065,0.35700000000000004,1.382645361552798,104.0,3.9611324419034846,103.0,99.0,99.0,99.0,7.346,0.0,0.0,0.002,_                             6 wl:PPN2012   6 gf:PPN2012   6 PPN2012   6 PPN2012   6 PPN2012   6 PPN2012   6 PPN2012   6 PPN2012   6 PPN2012    (48)TiO,"8s2.9s1.3p4.1d1 a,1,2,0,104,2","8s2.11s1.3p4.1d1 f,1,2,0,103,5",0.5,1.0,1.0
TiO 1,4807.0663,-0.515,0.655190300865013,23.0,3.233676736497873,24.0,99.0,99.0,99.0,7.307,0.0,0.0,0.003,_                             6 wl:PPN2012   6 gf:PPN2012   6 PPN2012   6 PPN2012   6 PPN2012   6 PPN2012   6 PPN2012   6 PPN2012   6 PPN2012    (48)TiO,"8s2.9s1.3p4.1d1 X,3,2,0,23,5","8s2.11s1.3p4.1d1 C,3,2,0,24,8",0.5,1.0,1.0
TiO 1,4807.0675,-0.254,0.4963531908077124,32.0,3.074838969324326,33.0,99.0,99.0,99.0,7.407,0.0,0.0,0.011000000000000001,_                             6 wl:PPN2012   6 gf:PPN2012   6 PPN2012   6 PPN2012   6 PPN2012   6 PPN2012   6 PPN2012   6 PPN2012   6 PPN2012    (48)TiO,"8s2.9s1.3p4.1d1 a,1,2,0,32,0","8s2.11s1.3p4.1d1 f,1,2,0,33,2",0.5,1.0,1.0
TiO 1,4807.0772,-1.5819999999999999,0.14839647517885962,3.0,2.726877071156019,3.0,99.0,99.0,99.0,7.303,0.0,0.0,0.002,_                             3 wl:PPN2012   3 gf:PPN2012   3 PPN2012   3 PPN2012   3 PPN2012   3 PPN2012   3 PPN2012   3 PPN2012   3 PPN2012    (46)TiO,"8s2.9s1.3p4.1d1 X,3,2,0,4,1","8s2.11s1.3p4.1d1 C,3,2,0,4,3",0.5,1.0,1.0
TiO 1,4807.0814,0.142,1.2907445548620156,93.0,3.869222832334682,93.0,99.0,99.0,99.0,7.521,0.0,0.0,0.001,_                             6 wl:PPN2012   6 gf:PPN2012   6 PPN2012   6 PPN2012   6 PPN2012   6 PPN2012   6 PPN2012   6 PPN2012   6 PPN2012    (48)TiO,"8s2.9s1.3p4.1d1 X,3,2,-,93,6","8s2.3p4.4p1.1d1 B,3,1,+,93,9",0.5,1.0,1.0
TiO 1,4807.0923,-0.513,0.6434904204849667,23.0,3.22196295748929,24.0,99.0,99.0,99.0,7.307,0.0,0.0,0.003,_                             6 wl:PPN2012   6 gf:PPN2012   6 PPN2012   6 PPN2012   6 PPN2012   6 PPN2012   6 PPN2012   6 PPN2012   6 PPN2012    (48)TiO,"8s2.9s1.3p4.1d1 X,3,2,0,22,5","8s2.11s1.3p4.1d1 C,3,2,0,23,8",0.5,1.0,1.0
TiO 1,4807.0955,0.026000000000000002,0.15974949736806346,23.0,2.7382384870753915,24.0,99.0,99.0,99.0,7.325,0.0,0.0,0.073,_          0.0339744          6 wl:PPN2012   6 gf:PPN2012   6 PPN2012   6 PPN2012   6 PPN2012   6 PPN2012   6 PPN2012   6 PPN2012   6 PPN2012    (48)TiO,"8s2.9s1.3p4.1d1 X,3,2,0,22,1","8s2.11s1.3p4.1d1 C,3,2,0,23,3",0.5,1.0,1.0
TiO 1,4807.1096,0.33899999999999997,1.3098319220625416,140.0,3.8881787762858897,141.0,99.0,99.0,99.0,7.195,0.0,0.0,0.002,_          -0.217099          6 wl:PPN2012   6 gf:PPN2012   6 PPN2012   6 PPN2012   6 PPN2012   6 PPN2012   6 PPN2012   6 PPN2012   6 PPN2012    (48)TiO,"8s2.9s1.3p4.1d1 X,3,2,0,141,0","8s2.11s1.3p4.1d1 C,3,2,0,142,3",0.5,1.0,1.0