species,wlcent,gflog,excit,j_lo,e_upp,j_up,lande_lower,lande_upper,lande,gamrad,gamqst,gamvw,depth,reference,term_lower,term_upper,error,atom_number,ionization
TiO 1,4788.8087,-0.51,0.7807274376037128,89.0,3.3688771643921354,88.0,99.0,99.0,99.0,7.274,0.0,0.0,0.002,_          -0.309463          2 wl:PPN2012   2 gf:PPN2012   2 PPN2012   2 PPN2012   2 PPN2012   2 PPN2012   2 PPN2012   2 PPN2012   2 PPN2012    (47)TiO,"8s2.9s1.3p4.1d1 X,3,2,0,89,2","8s2.11s1.3p4.1d1 C,3,2,0,88,5",0.5,1.0,1.0
Co 1,4788.8255,-2.9930000000000003,4.146018316681429,4.5,6.734326162252665,5.5,1.17,1.17,1.17,8.4,-5.16,-7.55,0.003,"_          Kurucz CoI 2008   12 wl:K08  12 gf:K08  12 K08  12 K08  12 K08  12 K08  12 K08  12 K08  12 K08   hfs:P,P Co",3p6.3d8.(3F).4p y2G*,3p6.3d7.4s.(5F).4d f4H,0.5,1.0,1.0
Cr 1,4788.8291,-0.73,4.207373612988783,3.0,6.795679497873919,4.0,1.3,1.05,0.68,7.84,-6.14,-7.78,0.29100000000000004,_      A   Kurucz Cr I 2016  10 wl:K16  10 gf:K16  10 K16  10 K16  10 K16  10 K16  10 K16  10 K16  10 K16    Cr,3d4.4s2 c3D,3d5.(4G).5p v3H*,0.5,1.0,1.0
Co 1,4788.8406,-3.077,4.1460036963408795,4.5,6.734303383008016,5.5,1.17,1.17,1.17,8.4,-5.16,-7.55,0.003,"_          Kurucz CoI 2008   12 wl:K08  12 gf:K08  12 K08  12 K08  12 K08  12 K08  12 K08  12 K08  12 K08   hfs:P,P Co",3p6.3d8.(3F).4p y2G*,3p6.3d7.4s.(5F).4d f4H,0.5,1.0,1.0
TiO 1,4788.8485,0.483,1.4613908249710126,101.0,4.049686295183561,102.0,99.0,99.0,99.0,7.34,0.0,0.0,0.001,_                             6 wl:PPN2012   6 gf:PPN2012   6 PPN2012   6 PPN2012   6 PPN2012   6 PPN2012   6 PPN2012   6 PPN2012   6 PPN2012    (48)TiO,"8s2.9s1.3p4.1d1 a,1,2,0,101,3","8s2.11s1.3p4.1d1 f,1,2,0,102,6",0.5,1.0,1.0
Co 1,4788.8544,-3.167,4.145990903403416,4.5,6.734283134776775,5.5,1.17,1.17,1.17,8.4,-5.16,-7.55,0.003,"_          Kurucz CoI 2008   12 wl:K08  12 gf:K08  12 K08  12 K08  12 K08  12 K08  12 K08  12 K08  12 K08   hfs:P,P Co",3p6.3d8.(3F).4p y2G*,3p6.3d7.4s.(5F).4d f4H,0.5,1.0,1.0
Co 1,4788.8669,-3.263,4.145979938117007,4.5,6.734265417558941,5.5,1.17,1.17,1.17,8.4,-5.16,-7.55,0.003,"_          Kurucz CoI 2008   12 wl:K08  12 gf:K08  12 K08  12 K08  12 K08  12 K08  12 K08  12 K08  12 K08   hfs:P,P Co",3p6.3d8.(3F).4p y2G*,3p6.3d7.4s.(5F).4d f4H,0.5,1.0,1.0
Co 1,4788.8676,-4.14,4.146018316681429,4.5,6.734303383008016,5.5,1.17,1.17,1.17,8.4,-5.16,-7.55,0.003,"_          Kurucz CoI 2008   12 wl:K08  12 gf:K08  12 K08  12 K08  12 K08  12 K08  12 K08  12 K08  12 K08   hfs:P,P Co",3p6.3d8.(3F).4p y2G*,3p6.3d7.4s.(5F).4d f4H,0.5,1.0,1.0
TiO 1,4788.8688,0.551,0.977028344275352,105.0,3.564796373313443,106.0,99.0,99.0,99.0,7.251,0.0,0.0,0.011000000000000001,_          -0.955739          6 wl:PPN2012   6 gf:PPN2012   6 PPN2012   6 PPN2012   6 PPN2012   6 PPN2012   6 PPN2012   6 PPN2012   6 PPN2012    (48)TiO,"8s2.9s1.3p4.1d1 X,3,2,0,105,2","8s2.11s1.3p4.1d1 C,3,2,0,106,5",0.5,1.0,1.0
Ti 1,4788.8731,-3.627,2.7377184973512017,2.0,5.326000577270423,2.0,1.0,0.67,0.84,7.74,-5.28,-7.61,0.003,_          Kurucz TiI 2016   22 wl:K16  22 gf:K16  22 K16  22 K16  22 K16  22 K16  22 K16  22 K16  22 K16    Ti,3d2.(3F).4s.4p.(3P*) z1D*,3d4 3F1,0.5,1.0,1.0
TiO 1,4788.8749,-1.014,0.6133016446255826,41.0,3.2015828070617434,40.0,99.0,99.0,99.0,7.305,0.0,0.0,0.001,_                             2 wl:PPN2012   2 gf:PPN2012   2 PPN2012   2 PPN2012   2 PPN2012   2 PPN2012   2 PPN2012   2 PPN2012   2 PPN2012    (47)TiO,"8s2.9s1.3p4.1d1 X,3,2,0,41,4","8s2.11s1.3p4.1d1 C,3,2,0,40,7",0.5,1.0,1.0
Co 1,4788.878,-3.9219999999999997,4.1460036963408795,4.5,6.734283134776775,5.5,1.17,1.17,1.17,8.4,-5.16,-7.55,0.003,"_          Kurucz CoI 2008   12 wl:K08  12 gf:K08  12 K08  12 K08  12 K08  12 K08  12 K08  12 K08  12 K08   hfs:P,P Co",3p6.3d8.(3F).4p y2G*,3p6.3d7.4s.(5F).4d f4H,0.5,1.0,1.0
Co 1,4788.878,-3.367,4.14597080035767,4.5,6.734250231354513,5.5,1.17,1.17,1.17,8.4,-5.16,-7.55,0.003,"_          Kurucz CoI 2008   12 wl:K08  12 gf:K08  12 K08  12 K08  12 K08  12 K08  12 K08  12 K08  12 K08   hfs:P,P Co",3p6.3d8.(3F).4p y2G*,3p6.3d7.4s.(5F).4d f4H,0.5,1.0,1.0
TiO 1,4788.8849,0.31,1.2356530446055467,55.0,3.8239288013306973,56.0,99.0,99.0,99.0,7.358,0.0,0.0,0.002,_                             6 wl:PPN2012   6 gf:PPN2012   6 PPN2012   6 PPN2012   6 PPN2012   6 PPN2012   6 PPN2012   6 PPN2012   6 PPN2012    (48)TiO,"8s2.9s1.3p4.1d1 a,1,2,0,55,5","8s2.11s1.3p4.1d1 f,1,2,0,56,8",0.5,1.0,1.0
Co 1,4788.8871,-3.84,4.145990903403416,4.5,6.734265417558941,5.5,1.17,1.17,1.17,8.4,-5.16,-7.55,0.003,"_          Kurucz CoI 2008   12 wl:K08  12 gf:K08  12 K08  12 K08  12 K08  12 K08  12 K08  12 K08  12 K08   hfs:P,P Co",3p6.3d8.(3F).4p y2G*,3p6.3d7.4s.(5F).4d f4H,0.5,1.0,1.0
Co 1,4788.8879,-3.4789999999999996,4.1459634901254026,4.5,6.734237576287477,5.5,1.17,1.17,1.17,8.4,-5.16,-7.55,0.003,"_          Kurucz CoI 2008   12 wl:K08  12 gf:K08  12 K08  12 K08  12 K08  12 K08  12 K08  12 K08  12 K08   hfs:P,P Co",3p6.3d8.(3F).4p y2G*,3p6.3d7.4s.(5F).4d f4H,0.5,1.0,1.0
Co 1,4788.895,-3.824,4.145979938117007,4.5,6.734250231354513,5.5,1.17,1.17,1.17,8.4,-5.16,-7.55,0.003,"_          Kurucz CoI 2008   12 wl:K08  12 gf:K08  12 K08  12 K08  12 K08  12 K08  12 K08  12 K08  12 K08   hfs:P,P Co",3p6.3d8.(3F).4p y2G*,3p6.3d7.4s.(5F).4d f4H,0.5,1.0,1.0
TiO 1,4788.8957,-0.835,0.7256839092316649,58.0,3.313953776707436,59.0,99.0,99.0,99.0,7.294,0.0,0.0,0.001,_                             3 wl:PPN2012   3 gf:PPN2012   3 PPN2012   3 PPN2012   3 PPN2012   3 PPN2012   3 PPN2012   3 PPN2012   3 PPN2012    (46)TiO,"8s2.9s1.3p4.1d1 X,3,2,0,58,4","8s2.11s1.3p4.1d1 C,3,2,0,59,7",0.5,1.0,1.0
Co 1,4788.8965,-3.597,4.14595800754419,4.5,6.734227452109865,5.5,1.17,1.17,1.17,8.4,-5.16,-7.55,0.003,"_          Kurucz CoI 2008   12 wl:K08  12 gf:K08  12 K08  12 K08  12 K08  12 K08  12 K08  12 K08  12 K08   hfs:P,P Co",3p6.3d8.(3F).4p y2G*,3p6.3d7.4s.(5F).4d f4H,0.5,1.0,1.0
Co 1,4788.9015,-3.86,4.14597080035767,4.5,6.734237576287477,5.5,1.17,1.17,1.17,8.4,-5.16,-7.55,0.003,"_          Kurucz CoI 2008   12 wl:K08  12 gf:K08  12 K08  12 K08  12 K08  12 K08  12 K08  12 K08  12 K08   hfs:P,P Co",3p6.3d8.(3F).4p y2G*,3p6.3d7.4s.(5F).4d f4H,0.5,1.0,1.0
TiO 1,4788.9019,-0.873,0.2198279372104349,54.0,2.8081405296406543,55.0,99.0,99.0,99.0,7.311,0.0,0.0,0.006999999999999999,_          0.0851134          8 wl:PPN2012   8 gf:PPN2012   8 PPN2012   8 PPN2012   8 PPN2012   8 PPN2012   8 PPN2012   8 PPN2012   8 PPN2012    (49)TiO,"8s2.9s1.3p4.1d1 X,3,2,0,55,0","8s2.11s1.3p4.1d1 C,3,2,0,56,2",0.5,1.0,1.0
Co 1,4788.9038,-3.715,4.145954352366065,4.5,6.734219859069642,5.5,1.17,1.17,1.17,8.4,-5.16,-7.55,0.003,"_          Kurucz CoI 2008   12 wl:K08  12 gf:K08  12 K08  12 K08  12 K08  12 K08  12 K08  12 K08  12 K08   hfs:P,P Co",3p6.3d8.(3F).4p y2G*,3p6.3d7.4s.(5F).4d f4H,0.5,1.0,1.0
Co 1,4788.9051,-5.593,4.146018316681429,4.5,6.734283134776775,5.5,1.17,1.17,1.17,8.4,-5.16,-7.55,0.003,"_          Kurucz CoI 2008   12 wl:K08  12 gf:K08  12 K08  12 K08  12 K08  12 K08  12 K08  12 K08  12 K08   hfs:P,P Co",3p6.3d8.(3F).4p y2G*,3p6.3d7.4s.(5F).4d f4H,0.5,1.0,1.0
TiO 1,4788.9054,-0.857,0.22066837649140592,56.0,2.808973703447654,57.0,99.0,99.0,99.0,7.31,0.0,0.0,0.008,_          0.0752850          8 wl:PPN2012   8 gf:PPN2012   8 PPN2012   8 PPN2012   8 PPN2012   8 PPN2012   8 PPN2012   8 PPN2012   8 PPN2012    (49)TiO,"8s2.9s1.3p4.1d1 X,3,2,0,56,0","8s2.11s1.3p4.1d1 C,3,2,0,57,2",0.5,1.0,1.0
Co 1,4788.9067,-3.9560000000000004,4.1459634901254026,4.5,6.734227452109865,5.5,1.17,1.17,1.17,8.4,-5.16,-7.55,0.003,"_          Kurucz CoI 2008   12 wl:K08  12 gf:K08  12 K08  12 K08  12 K08  12 K08  12 K08  12 K08  12 K08   hfs:P,P Co",3p6.3d8.(3F).4p y2G*,3p6.3d7.4s.(5F).4d f4H,0.5,1.0,1.0
TiO 1,4788.9068,-0.53,0.8919664439249231,88.0,3.477082512971227,89.0,99.0,99.0,99.0,7.27,0.0,0.0,0.001,_          -5.83127           3 wl:PPN2012   3 gf:PPN2012   3 PPN2012   3 PPN2012   3 PPN2012   3 PPN2012   3 PPN2012   3 PPN2012   3 PPN2012    (46)TiO,"8s2.9s1.3p4.1d1 X,3,2,0,88,3","8s2.11s1.3p4.1d1 C,3,2,0,89,6",0.5,1.0,1.0
Mn 1,4788.9089,-2.988,4.429444932666662,2.5,7.017707671051078,1.5,1.89,1.23,2.38,8.71,-5.01,-7.52,0.002,_          Kurucz MnI 2007   39 wl:K07  39 gf:K07  39 K07  39 K07  39 K07  39 K07  39 K07  39 K07  39 K07    Mn,3d5.(6S).4s.4p.(1P*) y6P*,e4D e4D,0.5,1.0,1.0
Co 1,4788.9106,-4.167,4.14595800754419,4.5,6.734219859069642,5.5,1.17,1.17,1.17,8.4,-5.16,-7.55,0.003,"_          Kurucz CoI 2008   12 wl:K08  12 gf:K08  12 K08  12 K08  12 K08  12 K08  12 K08  12 K08  12 K08   hfs:P,P Co",3p6.3d8.(3F).4p y2G*,3p6.3d7.4s.(5F).4d f4H,0.5,1.0,1.0
Co 1,4788.9108,-5.204,4.1460036963408795,4.5,6.734265417558941,5.5,1.17,1.17,1.17,8.4,-5.16,-7.55,0.003,"_          Kurucz CoI 2008   12 wl:K08  12 gf:K08  12 K08  12 K08  12 K08  12 K08  12 K08  12 K08  12 K08   hfs:P,P Co",3p6.3d8.(3F).4p y2G*,3p6.3d7.4s.(5F).4d f4H,0.5,1.0,1.0
TiO 1,4788.9128,-0.268,1.0707788588097717,56.0,3.659039489462831,55.0,99.0,99.0,99.0,7.271,0.0,0.0,0.001,_                             6 wl:PPN2012   6 gf:PPN2012   6 PPN2012   6 PPN2012   6 PPN2012   6 PPN2012   6 PPN2012   6 PPN2012   6 PPN2012    (48)TiO,"8s2.9s1.3p4.1d1 X,3,2,0,57,7","8s2.11s1.3p4.1d1 C,3,2,0,56,11",0.5,1.0,1.0
Co 1,4788.9152,-5.012,4.145990903403416,4.5,6.734250231354513,5.5,1.17,1.17,1.17,8.4,-5.16,-7.55,0.003,"_          Kurucz CoI 2008   12 wl:K08  12 gf:K08  12 K08  12 K08  12 K08  12 K08  12 K08  12 K08  12 K08   hfs:P,P Co",3p6.3d8.(3F).4p y2G*,3p6.3d7.4s.(5F).4d f4H,0.5,1.0,1.0
Co 1,4788.9184,-4.9319999999999995,4.145979938117007,4.5,6.734237576287477,5.5,1.17,1.17,1.17,8.4,-5.16,-7.55,0.003,"_          Kurucz CoI 2008   12 wl:K08  12 gf:K08  12 K08  12 K08  12 K08  12 K08  12 K08  12 K08  12 K08   hfs:P,P Co",3p6.3d8.(3F).4p y2G*,3p6.3d7.4s.(5F).4d f4H,0.5,1.0,1.0
Co 1,4788.9202,-4.96,4.14597080035767,4.5,6.734227452109865,5.5,1.17,1.17,1.17,8.4,-5.16,-7.55,0.003,"_          Kurucz CoI 2008   12 wl:K08  12 gf:K08  12 K08  12 K08  12 K08  12 K08  12 K08  12 K08  12 K08   hfs:P,P Co",3p6.3d8.(3F).4p y2G*,3p6.3d7.4s.(5F).4d f4H,0.5,1.0,1.0
Co 1,4788.9207,-5.167000000000001,4.1459634901254026,4.5,6.734219859069642,5.5,1.17,1.17,1.17,8.4,-5.16,-7.55,0.003,"_          Kurucz CoI 2008   12 wl:K08  12 gf:K08  12 K08  12 K08  12 K08  12 K08  12 K08  12 K08  12 K08   hfs:P,P Co",3p6.3d8.(3F).4p y2G*,3p6.3d7.4s.(5F).4d f4H,0.5,1.0,1.0
CH 1,4788.927,-2.801,1.055291992703778,7.5,3.6435449363365944,8.5,99.0,99.0,99.0,6.27,0.0,0.0,0.002,_                            37 wl:JLIY  37 gf:JLIY  37 JLIY  37 JLIY  37 JLIY  37 JLIY  37 JLIY  37 JLIY  37 JLIY    (12)CH,"1s2.2s2.3s2.1p1 X,2,1,e,7,3","1s2.2s2.3s1.1p2 A,2,2,e,8,2",0.5,1.0,1.0
TiO 1,4788.9338,0.07400000000000001,0.11190413194695856,36.0,2.700207946295997,35.0,99.0,99.0,99.0,7.322,0.0,0.0,0.096,_          0.100802           6 wl:PPN2012   6 gf:PPN2012   6 PPN2012   6 PPN2012   6 PPN2012   6 PPN2012   6 PPN2012   6 PPN2012   6 PPN2012    (48)TiO,"8s2.9s1.3p4.1d1 X,3,2,0,37,0","8s2.11s1.3p4.1d1 C,3,2,0,36,2",0.5,1.0,1.0
MgH 1,4788.9355,-0.988,0.30142579347406695,12.5,2.889674149691577,12.5,99.0,99.0,99.0,7.39,0.0,0.0,0.105,_                            18 wl:KMGH  18 gf:KMGH  18 KMGH  18 KMGH  18 KMGH  18 KMGH  18 KMGH  18 KMGH  18 KMGH    (24)MgH,"4s2.5s1 X,2,0,f,13,1","4s2.2p1 A,2,1,e,13,2",0.5,1.0,1.0
TiO 1,4788.9398,-0.6579999999999999,0.23928611634875466,58.0,2.827571581036567,59.0,99.0,99.0,99.0,7.308,0.0,0.0,0.011000000000000001,_          0.0727040          3 wl:PPN2012   3 gf:PPN2012   3 PPN2012   3 PPN2012   3 PPN2012   3 PPN2012   3 PPN2012   3 PPN2012   3 PPN2012    (46)TiO,"8s2.9s1.3p4.1d1 X,3,2,0,58,0","8s2.11s1.3p4.1d1 C,3,2,0,59,2",0.5,1.0,1.0
TiO 1,4788.9432,0.11,0.71330422349689,57.0,3.301548413845365,58.0,99.0,99.0,99.0,7.295,0.0,0.0,0.011000000000000001,_                             6 wl:PPN2012   6 gf:PPN2012   6 PPN2012   6 PPN2012   6 PPN2012   6 PPN2012   6 PPN2012   6 PPN2012   6 PPN2012    (48)TiO,"8s2.9s1.3p4.1d1 X,3,2,0,57,4","8s2.11s1.3p4.1d1 C,3,2,0,58,7",0.5,1.0,1.0
Ce 2,4788.9505,-2.85,0.8752133768038461,4.5,3.4634536740485204,4.5,1.22,0.97,1.1,0.0,0.0,0.0,0.006999999999999999,C-0.002    Ce 2: DREAM data  15 wl:PQWB  15 gf:PQWB  15 PQWB  15 PQWB  15 PQWB  15 PQWB  15 PQWB  15 PQWB  15 PQWB    Ce+,4f.(2F*).5d2.(3F) 4F*,4f.5d.(3H*).6p 4f.5d.(3H*).6p,0.002,1.0,2.0
TiO 1,4788.9773,-0.828,0.10817452610760044,40.0,2.696428536004515,39.0,99.0,99.0,99.0,7.321000000000001,0.0,0.0,0.012,_          0.0522131          3 wl:PPN2012   3 gf:PPN2012   3 PPN2012   3 PPN2012   3 PPN2012   3 PPN2012   3 PPN2012   3 PPN2012   3 PPN2012    (46)TiO,"8s2.9s1.3p4.1d1 X,3,2,0,39,0","8s2.11s1.3p4.1d1 C,3,2,0,38,2",0.5,1.0,1.0
TiO 1,4788.986,-0.639,0.8381498135773607,72.0,3.4263708684745877,72.0,99.0,99.0,99.0,7.364,0.0,0.0,0.001,_                             6 wl:PPN2012   6 gf:PPN2012   6 PPN2012   6 PPN2012   6 PPN2012   6 PPN2012   6 PPN2012   6 PPN2012   6 PPN2012    (48)TiO,"8s2.9s1.3p4.1d1 X,3,2,+,72,4","8s2.3p4.4p1.1d1 B,3,1,-,72,8",0.5,1.0,1.0
TiO 1,4788.9897,-0.259,1.0580600514980762,58.0,3.646279159843403,57.0,99.0,99.0,99.0,7.27,0.0,0.0,0.001,_                             6 wl:PPN2012   6 gf:PPN2012   6 PPN2012   6 PPN2012   6 PPN2012   6 PPN2012   6 PPN2012   6 PPN2012   6 PPN2012    (48)TiO,"8s2.9s1.3p4.1d1 X,3,2,0,57,7","8s2.11s1.3p4.1d1 C,3,2,0,56,11",0.5,1.0,1.0
MgH 1,4788.9899,-2.798,0.0014239585079444115,1.5,2.589642930470654,2.5,99.0,99.0,99.0,7.39,0.0,0.0,0.005,_                            18 wl:KMGH  18 gf:KMGH  18 KMGH  18 KMGH  18 KMGH  18 KMGH  18 KMGH  18 KMGH  18 KMGH    (24)MgH,"4s2.5s1 X,2,0,e,1,0","4s2.2p1 A,2,1,e,3,1",0.5,1.0,1.0
TiO 1,4789.0024,0.589,1.1432177048442114,118.0,3.7124283247354426,119.0,99.0,99.0,99.0,7.232,0.0,0.0,0.006,_          -35.4195           6 wl:PPN2012   6 gf:PPN2012   6 PPN2012   6 PPN2012   6 PPN2012   6 PPN2012   6 PPN2012   6 PPN2012   6 PPN2012    (48)TiO,"8s2.9s1.3p4.1d1 X,3,2,0,117,2","8s2.11s1.3p4.1d1 C,3,2,0,118,5",0.5,1.0,1.0
TiO 1,4789.0146,0.315,1.279330941595508,96.0,3.8675366472490884,95.0,99.0,99.0,99.0,7.353,0.0,0.0,0.002,_                             6 wl:PPN2012   6 gf:PPN2012   6 PPN2012   6 PPN2012   6 PPN2012   6 PPN2012   6 PPN2012   6 PPN2012   6 PPN2012    (48)TiO,"8s2.9s1.3p4.1d1 a,1,2,0,96,2","8s2.11s1.3p4.1d1 f,1,2,0,95,5",0.5,1.0,1.0
TiO 1,4789.0225,-0.88,0.7095382406939941,58.0,3.2977396192990827,59.0,99.0,99.0,99.0,7.294,0.0,0.0,0.001,_                             2 wl:PPN2012   2 gf:PPN2012   2 PPN2012   2 PPN2012   2 PPN2012   2 PPN2012   2 PPN2012   2 PPN2012   2 PPN2012    (47)TiO,"8s2.9s1.3p4.1d1 X,3,2,0,57,4","8s2.11s1.3p4.1d1 C,3,2,0,58,7",0.5,1.0,1.0
TiO 1,4789.0407,-0.623,0.828330537902961,95.0,3.4086336891845113,94.0,99.0,99.0,99.0,7.268,0.0,0.0,0.001,_          -14.6411           8 wl:PPN2012   8 gf:PPN2012   8 PPN2012   8 PPN2012   8 PPN2012   8 PPN2012   8 PPN2012   8 PPN2012   8 PPN2012    (49)TiO,"8s2.9s1.3p4.1d1 X,3,2,0,94,2","8s2.11s1.3p4.1d1 C,3,2,0,93,5",0.5,1.0,1.0
TiO 1,4789.0446,-1.034,0.09622778079197139,38.0,2.6844498027659385,37.0,99.0,99.0,99.0,7.322,0.0,0.0,0.008,_          0.0602086          8 wl:PPN2012   8 gf:PPN2012   8 PPN2012   8 PPN2012   8 PPN2012   8 PPN2012   8 PPN2012   8 PPN2012   8 PPN2012    (49)TiO,"8s2.9s1.3p4.1d1 X,3,2,0,37,0","8s2.11s1.3p4.1d1 C,3,2,0,36,2",0.5,1.0,1.0
Ce 2,4789.0477,-3.49,0.7368130407570772,3.5,3.325000768702024,2.5,1.14,1.35,0.88,0.0,0.0,0.0,0.003,C-0.003    Ce 2: DREAM data  15 wl:PQWB  15 gf:PQWB  15 PQWB  15 PQWB  15 PQWB  15 PQWB  15 PQWB  15 PQWB  15 PQWB    Ce+,4f.(2F*).5d2.(3F) *,4f2.(3P).5d 4D,0.003,1.0,2.0
TiO 1,4789.0506,0.28600000000000003,0.21560026205299976,57.0,2.8037833529889618,58.0,99.0,99.0,99.0,7.309,0.0,0.0,0.105,_          -0.00584236        6 wl:PPN2012   6 gf:PPN2012   6 PPN2012   6 PPN2012   6 PPN2012   6 PPN2012   6 PPN2012   6 PPN2012   6 PPN2012    (48)TiO,"8s2.9s1.3p4.1d1 X,3,2,0,56,0","8s2.11s1.3p4.1d1 C,3,2,0,57,2",0.5,1.0,1.0
TiO 1,4789.0658,0.10400000000000001,0.7197323081989262,56.0,3.3079102909859524,57.0,99.0,99.0,99.0,7.295,0.0,0.0,0.011000000000000001,_                             6 wl:PPN2012   6 gf:PPN2012   6 PPN2012   6 PPN2012   6 PPN2012   6 PPN2012   6 PPN2012   6 PPN2012   6 PPN2012    (48)TiO,"8s2.9s1.3p4.1d1 X,3,2,0,57,4","8s2.11s1.3p4.1d1 C,3,2,0,58,7",0.5,1.0,1.0
TiO 1,4789.0811,-0.7979999999999999,0.6897227886922445,69.0,3.2772879299895954,68.0,99.0,99.0,99.0,7.291,0.0,0.0,0.002,_          -1.11904           8 wl:PPN2012   8 gf:PPN2012   8 PPN2012   8 PPN2012   8 PPN2012   8 PPN2012   8 PPN2012   8 PPN2012   8 PPN2012    (49)TiO,"8s2.9s1.3p4.1d1 X,3,2,0,69,3","8s2.11s1.3p4.1d1 C,3,2,0,68,6",0.5,1.0,1.0
MgH 1,4789.0828,-1.1059999999999999,0.2639912447319115,18.5,2.852160003094646,18.5,99.0,99.0,99.0,7.39,0.0,0.0,0.094,_                            18 wl:KMGH  18 gf:KMGH  18 KMGH  18 KMGH  18 KMGH  18 KMGH  18 KMGH  18 KMGH  18 KMGH    (24)MgH,"4s2.5s1 X,2,0,f,19,0","4s2.2p1 A,2,1,e,19,1",0.5,1.0,1.0
TiO 1,4789.0847,-1.035,0.10862429118234307,38.0,2.6968405354927083,37.0,99.0,99.0,99.0,7.322,0.0,0.0,0.008,_          0.0897365          8 wl:PPN2012   8 gf:PPN2012   8 PPN2012   8 PPN2012   8 PPN2012   8 PPN2012   8 PPN2012   8 PPN2012   8 PPN2012    (49)TiO,"8s2.9s1.3p4.1d1 X,3,2,0,38,0","8s2.11s1.3p4.1d1 C,3,2,0,37,2",0.5,1.0,1.0
TiO 1,4789.0851,-0.8290000000000001,0.12071691630471547,40.0,2.7089322183351796,39.0,99.0,99.0,99.0,7.321000000000001,0.0,0.0,0.012,_          0.0883929          3 wl:PPN2012   3 gf:PPN2012   3 PPN2012   3 PPN2012   3 PPN2012   3 PPN2012   3 PPN2012   3 PPN2012   3 PPN2012    (46)TiO,"8s2.9s1.3p4.1d1 X,3,2,0,40,0","8s2.11s1.3p4.1d1 C,3,2,0,39,2",0.5,1.0,1.0
CH 1,4789.102,-2.806,0.7765819639692003,8.5,3.3647404316435443,9.5,99.0,99.0,99.0,6.27,0.0,0.0,0.006,_                            37 wl:JLIY  37 gf:JLIY  37 JLIY  37 JLIY  37 JLIY  37 JLIY  37 JLIY  37 JLIY  37 JLIY    (12)CH,"1s2.2s2.3s2.1p1 X,2,1,f,8,2","1s2.2s2.3s1.1p2 A,2,2,f,9,1",0.5,1.0,1.0
TiO 1,4789.1051,0.48200000000000004,0.782133269621987,88.0,3.370192264774701,87.0,99.0,99.0,99.0,7.275,0.0,0.0,0.02,_          -0.180915          6 wl:PPN2012   6 gf:PPN2012   6 PPN2012   6 PPN2012   6 PPN2012   6 PPN2012   6 PPN2012   6 PPN2012   6 PPN2012    (48)TiO,"8s2.9s1.3p4.1d1 X,3,2,0,89,2","8s2.11s1.3p4.1d1 C,3,2,0,88,5",0.5,1.0,1.0
Zr 1,4789.138,-1.9,0.6228234574134119,2.0,3.2109625835529507,3.0,0.98,1.65,2.32,0.0,0.0,0.0,0.545,_          Cu 1 - Ba 2 Bell  17 wl:CB  17 gf:CB  17 CB  17 CB  17 CB  17 CB  17 CB  17 CB  17 CB    Zr,4d3.(b4F).5s a5F,4d2.5s.(a4P).5p z5P*,0.5,1.0,1.0
TiO 1,4789.1638,0.337,0.677765430329312,69.0,3.2662088260878623,68.0,99.0,99.0,99.0,7.291,0.0,0.0,0.021,_          0.589249           6 wl:PPN2012   6 gf:PPN2012   6 PPN2012   6 PPN2012   6 PPN2012   6 PPN2012   6 PPN2012   6 PPN2012   6 PPN2012    (48)TiO,"8s2.9s1.3p4.1d1 X,3,2,0,68,3","8s2.11s1.3p4.1d1 C,3,2,0,67,6",0.5,1.0,1.0
TiO 1,4789.1749,-0.639,0.8381498135773607,72.0,3.42626882948007,72.0,99.0,99.0,99.0,7.364,0.0,0.0,0.001,_                             6 wl:PPN2012   6 gf:PPN2012   6 PPN2012   6 PPN2012   6 PPN2012   6 PPN2012   6 PPN2012   6 PPN2012   6 PPN2012    (48)TiO,"8s2.9s1.3p4.1d1 X,3,2,-,72,4","8s2.3p4.4p1.1d1 B,3,1,+,72,8",0.5,1.0,1.0
Fe 1,4789.1991,-9.035,0.0,4.0,2.588105898374617,3.0,1.5,1.5,1.5,-0.46,-6.29,-7.82,0.225,_      C   Kurucz Fe I 2014   5 wl:K14   5 gf:K14   5 K14   5 K14   5 K14   5 K14   5 K14   5 K14   5 K14    Fe,3d6.4s2 a5D,3d6.4s2 b3F2,0.5,1.0,1.0
Fe 1,4789.1991,-11.323,0.0,4.0,2.588105898374617,3.0,1.5,1.5,1.5,-0.46,-6.29,-7.82,0.001,_      B   Kurucz Fe I 2014   5 wl:K14   5 gf:K14   5 K14   5 K14   5 K14   5 K14   5 K14   5 K14   5 K14    Fe,3d6.4s2 a5D,3d6.4s2 b3F2,0.5,1.0,1.0
TiO 1,4789.2095,-0.017,0.5989336367143989,41.0,3.1870340053938087,40.0,99.0,99.0,99.0,7.305,0.0,0.0,0.013000000000000001,_                             6 wl:PPN2012   6 gf:PPN2012   6 PPN2012   6 PPN2012   6 PPN2012   6 PPN2012   6 PPN2012   6 PPN2012   6 PPN2012    (48)TiO,"8s2.9s1.3p4.1d1 X,3,2,0,40,4","8s2.11s1.3p4.1d1 C,3,2,0,39,7",0.5,1.0,1.0