species,wlcent,gflog,excit,j_lo,e_upp,j_up,lande_lower,lande_upper,lande,gamrad,gamqst,gamvw,depth,reference,term_lower,term_upper,error,atom_number,ionization
TiO 1,4807.6424,-1.11,0.17096819507772817,23.0,2.749180464454722,24.0,99.0,99.0,99.0,7.325,0.0,0.0,0.005,_          0.0648270          8 wl:PPN2012   8 gf:PPN2012   8 PPN2012   8 PPN2012   8 PPN2012   8 PPN2012   8 PPN2012   8 PPN2012   8 PPN2012    (49)TiO,"8s2.9s1.3p4.1d1 X,3,2,0,23,1","8s2.11s1.3p4.1d1 C,3,2,0,24,3",0.5,1.0,1.0
TiO 1,4807.647,-1.307,0.13175204301160592,10.0,2.70999029947639,9.0,99.0,99.0,99.0,7.33,0.0,0.0,0.004,_          0.118021           3 wl:PPN2012   3 gf:PPN2012   3 PPN2012   3 PPN2012   3 PPN2012   3 PPN2012   3 PPN2012   3 PPN2012   3 PPN2012    (46)TiO,"8s2.9s1.3p4.1d1 X,3,2,0,9,1","8s2.11s1.3p4.1d1 C,3,2,0,8,3",0.5,1.0,1.0
TiO 1,4807.6528,-1.8619999999999999,0.136797666716591,5.0,2.7149858707608563,4.0,99.0,99.0,99.0,7.332999999999999,0.0,0.0,0.001,_          0.0304938          8 wl:PPN2012   8 gf:PPN2012   8 PPN2012   8 PPN2012   8 PPN2012   8 PPN2012   8 PPN2012   8 PPN2012   8 PPN2012    (49)TiO,"8s2.9s1.3p4.1d1 X,3,2,0,5,1","8s2.11s1.3p4.1d1 C,3,2,0,4,3",0.5,1.0,1.0
TiO 1,4807.6531,-0.698,0.14892723912980949,5.0,2.7271386778126807,6.0,99.0,99.0,99.0,7.33,0.0,0.0,0.015,_          0.0740283          6 wl:PPN2012   6 gf:PPN2012   6 PPN2012   6 PPN2012   6 PPN2012   6 PPN2012   6 PPN2012   6 PPN2012   6 PPN2012    (48)TiO,"8s2.9s1.3p4.1d1 X,3,2,0,6,1","8s2.11s1.3p4.1d1 C,3,2,0,7,3",0.5,1.0,1.0
TiO 1,4807.6539,-1.13,0.5256513757782488,38.0,3.10382263118272,39.0,99.0,99.0,99.0,7.406000000000001,0.0,0.0,0.001,_                             3 wl:PPN2012   3 gf:PPN2012   3 PPN2012   3 PPN2012   3 PPN2012   3 PPN2012   3 PPN2012   3 PPN2012   3 PPN2012    (46)TiO,"8s2.9s1.3p4.1d1 a,1,2,0,38,0","8s2.11s1.3p4.1d1 f,1,2,0,39,2",0.5,1.0,1.0
TiO 1,4807.6568,-0.7509999999999999,0.20103599955564064,53.0,2.7792475002306105,52.0,99.0,99.0,99.0,7.313,0.0,0.0,0.011000000000000001,_          0.0778735          2 wl:PPN2012   2 gf:PPN2012   2 PPN2012   2 PPN2012   2 PPN2012   2 PPN2012   2 PPN2012   2 PPN2012   2 PPN2012    (47)TiO,"8s2.9s1.3p4.1d1 X,3,2,0,53,0","8s2.11s1.3p4.1d1 C,3,2,0,52,2",0.5,1.0,1.0
TiO 1,4807.6584,-0.919,0.700596624356646,53.0,3.2787655736550443,52.0,99.0,99.0,99.0,7.2989999999999995,0.0,0.0,0.001,_                             2 wl:PPN2012   2 gf:PPN2012   2 PPN2012   2 PPN2012   2 PPN2012   2 PPN2012   2 PPN2012   2 PPN2012   2 PPN2012    (47)TiO,"8s2.9s1.3p4.1d1 X,3,2,0,54,4","8s2.11s1.3p4.1d1 C,3,2,0,53,7",0.5,1.0,1.0
Ce 1,4807.666,-1.005,0.02837365960684115,2.0,2.606538752996698,2.0,0.76,0.95,0.86,0.0,0.0,0.0,0.062,_          La1 to Lu 2 Bell   1 wl:CB   1 gf:CB   1 CB   1 CB   1 CB   1 CB   1 CB   1 CB   1 CB    Ce,4f.5d.6s2 3F*, ,0.5,1.0,1.0
TiO 1,4807.6671,0.085,0.6784068377780841,54.0,3.256571162465917,53.0,99.0,99.0,99.0,7.297999999999999,0.0,0.0,0.012,_                             6 wl:PPN2012   6 gf:PPN2012   6 PPN2012   6 PPN2012   6 PPN2012   6 PPN2012   6 PPN2012   6 PPN2012   6 PPN2012    (48)TiO,"8s2.9s1.3p4.1d1 X,3,2,0,53,4","8s2.11s1.3p4.1d1 C,3,2,0,52,7",0.5,1.0,1.0
Ce 1,4807.669,-0.239,0.8028646300857079,4.0,3.3810281116809975,3.0,0.9,0.86,0.96,0.0,0.0,0.0,0.023,_          La1 to Lu 2 Bell   1 wl:CB   1 gf:CB   1 CB   1 CB   1 CB   1 CB   1 CB   1 CB   1 CB    Ce,4f.(2F*)\ .5d2.(3F).6s.\ (2F)      *, ,0.5,1.0,1.0
TiO 1,4807.6776,0.515,0.8608705996768475,96.0,3.4387651967430837,95.0,99.0,99.0,99.0,7.266,0.0,0.0,0.016,_          -0.492451          6 wl:PPN2012   6 gf:PPN2012   6 PPN2012   6 PPN2012   6 PPN2012   6 PPN2012   6 PPN2012   6 PPN2012   6 PPN2012    (48)TiO,"8s2.9s1.3p4.1d1 X,3,2,0,96,2","8s2.11s1.3p4.1d1 C,3,2,0,95,5",0.5,1.0,1.0
TiO 1,4807.6826,-0.905,0.1854633115881582,27.0,2.7636566113829395,28.0,99.0,99.0,99.0,7.324,0.0,0.0,0.008,_          0.0697912          2 wl:PPN2012   2 gf:PPN2012   2 PPN2012   2 PPN2012   2 PPN2012   2 PPN2012   2 PPN2012   2 PPN2012   2 PPN2012    (47)TiO,"8s2.9s1.3p4.1d1 X,3,2,0,27,1","8s2.11s1.3p4.1d1 C,3,2,0,28,3",0.5,1.0,1.0
Sc 1,4807.6849,-0.636,3.1720910579621164,2.5,5.7502457366793855,2.5,0.86,0.86,0.86,8.39,-4.95,-7.51,0.011000000000000001,_          Kurucz ScI 2009   23 wl:K09  23 gf:K09  23 K09  23 K09  23 K09  23 K09  23 K09  23 K09  23 K09    Sc,3d.4s.(3D).4p 2F*,3d2.(3F).4d 2F,0.5,1.0,1.0
TiO 1,4807.6909,-1.416,0.1414261207923483,9.0,2.7195939914282286,8.0,99.0,99.0,99.0,7.331,0.0,0.0,0.003,_          0.0304614          2 wl:PPN2012   2 gf:PPN2012   2 PPN2012   2 PPN2012   2 PPN2012   2 PPN2012   2 PPN2012   2 PPN2012   2 PPN2012    (47)TiO,"8s2.9s1.3p4.1d1 X,3,2,0,9,1","8s2.11s1.3p4.1d1 C,3,2,0,8,3",0.5,1.0,1.0
TiO 1,4807.6956,-0.386,1.0235658747878629,49.0,3.601714899825728,49.0,99.0,99.0,99.0,7.505,0.0,0.0,0.001,_                             6 wl:PPN2012   6 gf:PPN2012   6 PPN2012   6 PPN2012   6 PPN2012   6 PPN2012   6 PPN2012   6 PPN2012   6 PPN2012    (48)TiO,"8s2.9s1.3p4.1d1 X,3,2,-,50,7","8s2.3p4.4p1.1d1 B,3,1,+,50,11",0.5,1.0,1.0
TiO 1,4807.7065,-0.193,0.16089950039327788,14.0,2.7390818275865834,15.0,99.0,99.0,99.0,7.327000000000001,0.0,0.0,0.044000000000000004,_          0.0731307          6 wl:PPN2012   6 gf:PPN2012   6 PPN2012   6 PPN2012   6 PPN2012   6 PPN2012   6 PPN2012   6 PPN2012   6 PPN2012    (48)TiO,"8s2.9s1.3p4.1d1 X,3,2,0,15,1","8s2.11s1.3p4.1d1 C,3,2,0,16,3",0.5,1.0,1.0
Fe 1,4807.708,-2.2,3.3682563755154025,4.0,5.946398655812925,4.0,1.36,1.29,1.32,7.87,-5.38,-7.175,0.7809999999999999,N D        Kurucz Fe I 2014   5 wl:K14  35 gf:FMW   5 K14   5 K14   5 K14   5 K14   5 K14  25 BPM   5 K14    Fe,3d6.(5D).4s.4p.(3P*) z5F*,3d7.(4F).5s e3F,0.5,1.0,1.0
TiO 1,4807.7164,-0.617,0.7655826315001195,78.0,3.344004694537653,77.0,99.0,99.0,99.0,7.2829999999999995,0.0,0.0,0.002,_          0.530109           2 wl:PPN2012   2 gf:PPN2012   2 PPN2012   2 PPN2012   2 PPN2012   2 PPN2012   2 PPN2012   2 PPN2012   2 PPN2012    (47)TiO,"8s2.9s1.3p4.1d1 X,3,2,0,77,3","8s2.11s1.3p4.1d1 C,3,2,0,76,6",0.5,1.0,1.0
TiO 1,4807.7164,-1.1840000000000002,0.15028563479413168,20.0,2.728446835080188,21.0,99.0,99.0,99.0,7.3260000000000005,0.0,0.0,0.005,_          0.0437361          4 wl:PPN2012   4 gf:PPN2012   4 PPN2012   4 PPN2012   4 PPN2012   4 PPN2012   4 PPN2012   4 PPN2012   4 PPN2012    (50)TiO,"8s2.9s1.3p4.1d1 X,3,2,0,19,1","8s2.11s1.3p4.1d1 C,3,2,0,20,3",0.5,1.0,1.0
TiO 1,4807.7326,-1.199,0.5151166120970886,36.0,3.093245663280741,37.0,99.0,99.0,99.0,7.406000000000001,0.0,0.0,0.001,_                             2 wl:PPN2012   2 gf:PPN2012   2 PPN2012   2 PPN2012   2 PPN2012   2 PPN2012   2 PPN2012   2 PPN2012   2 PPN2012    (47)TiO,"8s2.9s1.3p4.1d1 a,1,2,0,36,0","8s2.11s1.3p4.1d1 f,1,2,0,37,2",0.5,1.0,1.0
TiO 1,4807.7359,-0.843,0.4322249559360162,9.0,3.0103523085361634,8.0,99.0,99.0,99.0,7.414,0.0,0.0,0.004,_                             6 wl:PPN2012   6 gf:PPN2012   6 PPN2012   6 PPN2012   6 PPN2012   6 PPN2012   6 PPN2012   6 PPN2012   6 PPN2012    (48)TiO,"8s2.9s1.3p4.1d1 a,1,2,0,9,0","8s2.11s1.3p4.1d1 f,1,2,0,8,2",0.5,1.0,1.0
TiO 1,4807.7371,-1.167,0.16463141233870895,21.0,2.742792054695877,22.0,99.0,99.0,99.0,7.3260000000000005,0.0,0.0,0.005,_          0.0631948          4 wl:PPN2012   4 gf:PPN2012   4 PPN2012   4 PPN2012   4 PPN2012   4 PPN2012   4 PPN2012   4 PPN2012   4 PPN2012    (50)TiO,"8s2.9s1.3p4.1d1 X,3,2,0,21,1","8s2.11s1.3p4.1d1 C,3,2,0,22,3",0.5,1.0,1.0
TiO 1,4807.738,0.381,0.3329372699473216,71.0,2.9110537367349307,72.0,99.0,99.0,99.0,7.297000000000001,0.0,0.0,0.084,_          -0.0181758         6 wl:PPN2012   6 gf:PPN2012   6 PPN2012   6 PPN2012   6 PPN2012   6 PPN2012   6 PPN2012   6 PPN2012   6 PPN2012    (48)TiO,"8s2.9s1.3p4.1d1 X,3,2,0,70,0","8s2.11s1.3p4.1d1 C,3,2,0,71,2",0.5,1.0,1.0
TiO 1,4807.7395,-0.563,0.9182315786759083,92.0,3.499134218349066,93.0,99.0,99.0,99.0,7.266,0.0,0.0,0.001,_          5.17355            2 wl:PPN2012   2 gf:PPN2012   2 PPN2012   2 PPN2012   2 PPN2012   2 PPN2012   2 PPN2012   2 PPN2012   2 PPN2012    (47)TiO,"8s2.9s1.3p4.1d1 X,3,2,0,91,3","8s2.11s1.3p4.1d1 C,3,2,0,92,6",0.5,1.0,1.0
TiO 1,4807.7403,0.147,1.2566575794515535,39.0,3.8347826259456275,40.0,99.0,99.0,99.0,7.358,0.0,0.0,0.001,_                             6 wl:PPN2012   6 gf:PPN2012   6 PPN2012   6 PPN2012   6 PPN2012   6 PPN2012   6 PPN2012   6 PPN2012   6 PPN2012    (48)TiO,"8s2.9s1.3p4.1d1 a,1,2,0,39,6","8s2.11s1.3p4.1d1 f,1,2,0,40,9",0.5,1.0,1.0
TiO 1,4807.7564,-0.95,0.1815986249656564,22.0,2.7597555725937397,23.0,99.0,99.0,99.0,7.325,0.0,0.0,0.006999999999999999,_          0.0757585          3 wl:PPN2012   3 gf:PPN2012   3 PPN2012   3 PPN2012   3 PPN2012   3 PPN2012   3 PPN2012   3 PPN2012   3 PPN2012    (46)TiO,"8s2.9s1.3p4.1d1 X,3,2,0,23,1","8s2.11s1.3p4.1d1 C,3,2,0,24,3",0.5,1.0,1.0
TiO 1,4807.7682,-0.846,0.14826191512934528,4.0,2.7264118824471106,5.0,99.0,99.0,99.0,7.329,0.0,0.0,0.01,_          0.0744549          6 wl:PPN2012   6 gf:PPN2012   6 PPN2012   6 PPN2012   6 PPN2012   6 PPN2012   6 PPN2012   6 PPN2012   6 PPN2012    (48)TiO,"8s2.9s1.3p4.1d1 X,3,2,0,5,1","8s2.11s1.3p4.1d1 C,3,2,0,6,3",0.5,1.0,1.0
TiO 1,4807.7737,-1.057,0.17265756655719688,19.0,2.750804657441581,20.0,99.0,99.0,99.0,7.3260000000000005,0.0,0.0,0.006,_          0.0744826          2 wl:PPN2012   2 gf:PPN2012   2 PPN2012   2 PPN2012   2 PPN2012   2 PPN2012   2 PPN2012   2 PPN2012   2 PPN2012    (47)TiO,"8s2.9s1.3p4.1d1 X,3,2,0,20,1","8s2.11s1.3p4.1d1 C,3,2,0,21,3",0.5,1.0,1.0
TiO 1,4807.7804,-1.005,0.6243462189283202,8.0,3.202449704570454,7.0,99.0,99.0,99.0,7.313,0.0,0.0,0.001,_                             6 wl:PPN2012   6 gf:PPN2012   6 PPN2012   6 PPN2012   6 PPN2012   6 PPN2012   6 PPN2012   6 PPN2012   6 PPN2012    (48)TiO,"8s2.9s1.3p4.1d1 X,3,2,0,8,5","8s2.11s1.3p4.1d1 C,3,2,0,7,8",0.5,1.0,1.0
TiO 1,4807.7947,-0.915,0.17801736621857125,52.0,2.75612258763947,51.0,99.0,99.0,99.0,7.314,0.0,0.0,0.008,_          0.0174913          4 wl:PPN2012   4 gf:PPN2012   4 PPN2012   4 PPN2012   4 PPN2012   4 PPN2012   4 PPN2012   4 PPN2012   4 PPN2012    (50)TiO,"8s2.9s1.3p4.1d1 X,3,2,0,51,0","8s2.11s1.3p4.1d1 C,3,2,0,50,2",0.5,1.0,1.0
MgH 1,4807.8081,-2.7539999999999996,0.19815662774885365,4.5,2.7762452228888717,4.5,99.0,99.0,99.0,7.39,0.0,0.0,0.003,_                            18 wl:KMGH  18 gf:KMGH  18 KMGH  18 KMGH  18 KMGH  18 KMGH  18 KMGH  18 KMGH  18 KMGH    (24)MgH,"4s2.5s1 X,2,0,f,5,1","4s2.2p1 A,2,1,e,4,2",0.5,1.0,1.0
Cr 1,4807.8113,-1.618,3.092239531518271,2.0,5.6703263908795245,2.0,0.67,1.17,0.92,7.86,-5.96,-7.76,0.653,_          Kurucz Cr I 2016  10 wl:K16  10 gf:K16  10 K16  10 K16  10 K16  10 K16  10 K16  10 K16  10 K16    Cr,3d4.4s2 a3F,3d5.(4P).4p y3P*,0.5,1.0,1.0
TiO 1,4807.8177,-0.912,0.6939961892217066,54.0,3.2720797258064676,53.0,99.0,99.0,99.0,7.297999999999999,0.0,0.0,0.001,_                             2 wl:PPN2012   2 gf:PPN2012   2 PPN2012   2 PPN2012   2 PPN2012   2 PPN2012   2 PPN2012   2 PPN2012   2 PPN2012    (47)TiO,"8s2.9s1.3p4.1d1 X,3,2,0,54,4","8s2.11s1.3p4.1d1 C,3,2,0,53,7",0.5,1.0,1.0
TiO 1,4807.8183,-0.83,0.1936486863130373,29.0,2.771771005154767,30.0,99.0,99.0,99.0,7.3229999999999995,0.0,0.0,0.009000000000000001,_          0.0730126          3 wl:PPN2012   3 gf:PPN2012   3 PPN2012   3 PPN2012   3 PPN2012   3 PPN2012   3 PPN2012   3 PPN2012   3 PPN2012    (46)TiO,"8s2.9s1.3p4.1d1 X,3,2,0,29,1","8s2.11s1.3p4.1d1 C,3,2,0,30,3",0.5,1.0,1.0
TiO 1,4807.8183,-0.623,0.8617350422984488,95.0,3.439672761068565,94.0,99.0,99.0,99.0,7.267,0.0,0.0,0.001,_          -0.271265          8 wl:PPN2012   8 gf:PPN2012   8 PPN2012   8 PPN2012   8 PPN2012   8 PPN2012   8 PPN2012   8 PPN2012   8 PPN2012    (49)TiO,"8s2.9s1.3p4.1d1 X,3,2,0,96,2","8s2.11s1.3p4.1d1 C,3,2,0,95,5",0.5,1.0,1.0
TiO 1,4807.8197,0.34600000000000003,1.3083363006884594,105.0,3.8864186966186036,104.0,99.0,99.0,99.0,7.242000000000001,0.0,0.0,0.002,_                             6 wl:PPN2012   6 gf:PPN2012   6 PPN2012   6 PPN2012   6 PPN2012   6 PPN2012   6 PPN2012   6 PPN2012   6 PPN2012    (48)TiO,"8s2.9s1.3p4.1d1 X,3,2,0,104,5","8s2.11s1.3p4.1d1 C,3,2,0,103,9",0.5,1.0,1.0
TiO 1,4807.8235,-1.276,0.1445917473142543,11.0,2.7226890089496756,10.0,99.0,99.0,99.0,7.33,0.0,0.0,0.004,_          0.0314995          3 wl:PPN2012   3 gf:PPN2012   3 PPN2012   3 PPN2012   3 PPN2012   3 PPN2012   3 PPN2012   3 PPN2012   3 PPN2012    (46)TiO,"8s2.9s1.3p4.1d1 X,3,2,0,11,1","8s2.11s1.3p4.1d1 C,3,2,0,10,3",0.5,1.0,1.0
TiO 1,4807.8242,-0.9329999999999999,0.1912533240163342,50.0,2.769377738191001,49.0,99.0,99.0,99.0,7.315,0.0,0.0,0.006999999999999999,_          0.0827505          4 wl:PPN2012   4 gf:PPN2012   4 PPN2012   4 PPN2012   4 PPN2012   4 PPN2012   4 PPN2012   4 PPN2012   4 PPN2012    (50)TiO,"8s2.9s1.3p4.1d1 X,3,2,0,51,0","8s2.11s1.3p4.1d1 C,3,2,0,50,2",0.5,1.0,1.0
TiO 1,4807.8276,0.061,0.16611878876365935,25.0,2.744212913598884,26.0,99.0,99.0,99.0,7.325,0.0,0.0,0.077,_          0.0296643          6 wl:PPN2012   6 gf:PPN2012   6 PPN2012   6 PPN2012   6 PPN2012   6 PPN2012   6 PPN2012   6 PPN2012   6 PPN2012    (48)TiO,"8s2.9s1.3p4.1d1 X,3,2,0,24,1","8s2.11s1.3p4.1d1 C,3,2,0,25,3",0.5,1.0,1.0
TiO 1,4807.8338,-0.163,0.16289423255269578,15.0,2.7410084180310714,16.0,99.0,99.0,99.0,7.327000000000001,0.0,0.0,0.047,_          0.0733120          6 wl:PPN2012   6 gf:PPN2012   6 PPN2012   6 PPN2012   6 PPN2012   6 PPN2012   6 PPN2012   6 PPN2012   6 PPN2012    (48)TiO,"8s2.9s1.3p4.1d1 X,3,2,0,16,1","8s2.11s1.3p4.1d1 C,3,2,0,17,3",0.5,1.0,1.0
TiO 1,4807.8345,-0.774,0.7720434232334484,78.0,3.349056058710981,77.0,99.0,99.0,99.0,7.2829999999999995,0.0,0.0,0.001,_          -1.98122           4 wl:PPN2012   4 gf:PPN2012   4 PPN2012   4 PPN2012   4 PPN2012   4 PPN2012   4 PPN2012   4 PPN2012   4 PPN2012    (50)TiO,"8s2.9s1.3p4.1d1 X,3,2,0,78,3","8s2.11s1.3p4.1d1 C,3,2,0,77,6",0.5,1.0,1.0
MgH 1,4807.8409,-1.746,0.1981742335048944,5.5,2.7762452228888717,4.5,99.0,99.0,99.0,7.39,0.0,0.0,0.027999999999999997,_                            18 wl:KMGH  18 gf:KMGH  18 KMGH  18 KMGH  18 KMGH  18 KMGH  18 KMGH  18 KMGH  18 KMGH    (24)MgH,"4s2.5s1 X,2,0,e,5,1","4s2.2p1 A,2,1,e,4,2",0.5,1.0,1.0
TiO 1,4807.85,0.436,0.9592564618084037,93.0,3.5367735889854424,94.0,99.0,99.0,99.0,7.263999999999999,0.0,0.0,0.009000000000000001,_          -1.02420           6 wl:PPN2012   6 gf:PPN2012   6 PPN2012   6 PPN2012   6 PPN2012   6 PPN2012   6 PPN2012   6 PPN2012   6 PPN2012    (48)TiO,"8s2.9s1.3p4.1d1 X,3,2,0,94,3","8s2.11s1.3p4.1d1 C,3,2,0,95,6",0.5,1.0,1.0
TiO 1,4807.8552,-0.228,0.5052380471794586,34.0,3.083301386738452,35.0,99.0,99.0,99.0,7.407,0.0,0.0,0.011000000000000001,_                             6 wl:PPN2012   6 gf:PPN2012   6 PPN2012   6 PPN2012   6 PPN2012   6 PPN2012   6 PPN2012   6 PPN2012   6 PPN2012    (48)TiO,"8s2.9s1.3p4.1d1 a,1,2,0,34,0","8s2.11s1.3p4.1d1 f,1,2,0,35,2",0.5,1.0,1.0
TiO 1,4807.8574,-0.903,0.17358856389600008,27.0,2.7516652317562214,28.0,99.0,99.0,99.0,7.324,0.0,0.0,0.008,_          0.0269500          2 wl:PPN2012   2 gf:PPN2012   2 PPN2012   2 PPN2012   2 PPN2012   2 PPN2012   2 PPN2012   2 PPN2012   2 PPN2012    (47)TiO,"8s2.9s1.3p4.1d1 X,3,2,0,26,1","8s2.11s1.3p4.1d1 C,3,2,0,27,3",0.5,1.0,1.0
TiO 1,4807.8753,-1.1079999999999999,0.15925540794272527,23.0,2.7373262113504064,24.0,99.0,99.0,99.0,7.325,0.0,0.0,0.005,_          0.0339744          8 wl:PPN2012   8 gf:PPN2012   8 PPN2012   8 PPN2012   8 PPN2012   8 PPN2012   8 PPN2012   8 PPN2012   8 PPN2012    (49)TiO,"8s2.9s1.3p4.1d1 X,3,2,0,22,1","8s2.11s1.3p4.1d1 C,3,2,0,23,3",0.5,1.0,1.0
TiO 1,4807.8903,-0.564,0.3459375833793728,72.0,2.9239720222219354,73.0,99.0,99.0,99.0,7.296,0.0,0.0,0.009000000000000001,_          -0.0189029         3 wl:PPN2012   3 gf:PPN2012   3 PPN2012   3 PPN2012   3 PPN2012   3 PPN2012   3 PPN2012   3 PPN2012   3 PPN2012    (46)TiO,"8s2.9s1.3p4.1d1 X,3,2,0,71,0","8s2.11s1.3p4.1d1 C,3,2,0,72,2",0.5,1.0,1.0
TiO 1,4807.8919,-0.48,0.649712666622363,25.0,3.227756367084477,26.0,99.0,99.0,99.0,7.307,0.0,0.0,0.003,_                             6 wl:PPN2012   6 gf:PPN2012   6 PPN2012   6 PPN2012   6 PPN2012   6 PPN2012   6 PPN2012   6 PPN2012   6 PPN2012    (48)TiO,"8s2.9s1.3p4.1d1 X,3,2,0,24,5","8s2.11s1.3p4.1d1 C,3,2,0,25,8",0.5,1.0,1.0
TiO 1,4807.8956,-0.48200000000000004,0.6614830940107698,25.0,3.239524823124144,26.0,99.0,99.0,99.0,7.307,0.0,0.0,0.003,_                             6 wl:PPN2012   6 gf:PPN2012   6 PPN2012   6 PPN2012   6 PPN2012   6 PPN2012   6 PPN2012   6 PPN2012   6 PPN2012    (48)TiO,"8s2.9s1.3p4.1d1 X,3,2,0,25,5","8s2.11s1.3p4.1d1 C,3,2,0,26,8",0.5,1.0,1.0
TiO 1,4807.9075,-1.1079999999999999,0.14772960137592706,3.0,2.7258052277688893,4.0,99.0,99.0,99.0,7.324,0.0,0.0,0.006,_          0.0749559          6 wl:PPN2012   6 gf:PPN2012   6 PPN2012   6 PPN2012   6 PPN2012   6 PPN2012   6 PPN2012   6 PPN2012   6 PPN2012    (48)TiO,"8s2.9s1.3p4.1d1 X,3,2,0,4,1","8s2.11s1.3p4.1d1 C,3,2,0,5,3",0.5,1.0,1.0
TiO 1,4807.9094,-0.9840000000000001,0.6130002886352117,8.0,3.191034603493577,7.0,99.0,99.0,99.0,7.314,0.0,0.0,0.001,_                             6 wl:PPN2012   6 gf:PPN2012   6 PPN2012   6 PPN2012   6 PPN2012   6 PPN2012   6 PPN2012   6 PPN2012   6 PPN2012    (48)TiO,"8s2.9s1.3p4.1d1 X,3,2,0,7,5","8s2.11s1.3p4.1d1 C,3,2,0,6,8",0.5,1.0,1.0
TiO 1,4807.9134,-0.536,0.6643610028040265,22.0,3.2423931975326155,23.0,99.0,99.0,99.0,7.307,0.0,0.0,0.003,_                             6 wl:PPN2012   6 gf:PPN2012   6 PPN2012   6 PPN2012   6 PPN2012   6 PPN2012   6 PPN2012   6 PPN2012   6 PPN2012    (48)TiO,"8s2.9s1.3p4.1d1 X,3,2,0,23,5","8s2.11s1.3p4.1d1 C,3,2,0,24,8",0.5,1.0,1.0
TiO 1,4807.921,0.26899999999999996,1.2081743773265634,51.0,3.786202517771895,50.0,99.0,99.0,99.0,7.36,0.0,0.0,0.002,_                             6 wl:PPN2012   6 gf:PPN2012   6 PPN2012   6 PPN2012   6 PPN2012   6 PPN2012   6 PPN2012   6 PPN2012   6 PPN2012    (48)TiO,"8s2.9s1.3p4.1d1 a,1,2,0,51,5","8s2.11s1.3p4.1d1 f,1,2,0,50,8",0.5,1.0,1.0
TiO 1,4807.9261,-1.6269999999999998,0.14805591538524865,3.0,2.7260812165924584,3.0,99.0,99.0,99.0,7.303,0.0,0.0,0.002,_                             2 wl:PPN2012   2 gf:PPN2012   2 PPN2012   2 PPN2012   2 PPN2012   2 PPN2012   2 PPN2012   2 PPN2012   2 PPN2012    (47)TiO,"8s2.9s1.3p4.1d1 X,3,2,0,4,1","8s2.11s1.3p4.1d1 C,3,2,0,4,3",0.5,1.0,1.0
TiO 1,4807.9268,0.228,0.19973002441000878,51.0,2.7777988688673694,50.0,99.0,99.0,99.0,7.314,0.0,0.0,0.098,_          0.0817041          6 wl:PPN2012   6 gf:PPN2012   6 PPN2012   6 PPN2012   6 PPN2012   6 PPN2012   6 PPN2012   6 PPN2012   6 PPN2012    (48)TiO,"8s2.9s1.3p4.1d1 X,3,2,0,52,0","8s2.11s1.3p4.1d1 C,3,2,0,51,2",0.5,1.0,1.0
TiO 1,4807.9318,-1.611,0.14896869944544347,14.0,2.7269910126334937,14.0,99.0,99.0,99.0,7.327999999999999,0.0,0.0,0.002,_                             6 wl:PPN2012   6 gf:PPN2012   6 PPN2012   6 PPN2012   6 PPN2012   6 PPN2012   6 PPN2012   6 PPN2012   6 PPN2012    (48)TiO,"8s2.9s1.3p4.1d1 X,3,2,0,14,1","8s2.11s1.3p4.1d1 C,3,2,0,14,3",0.5,1.0,1.0
TiO 1,4807.9348,-0.622,0.7860369492745932,77.0,3.363991691075022,76.0,99.0,99.0,99.0,7.2829999999999995,0.0,0.0,0.001,_          -0.123083          2 wl:PPN2012   2 gf:PPN2012   2 PPN2012   2 PPN2012   2 PPN2012   2 PPN2012   2 PPN2012   2 PPN2012   2 PPN2012    (47)TiO,"8s2.9s1.3p4.1d1 X,3,2,0,78,3","8s2.11s1.3p4.1d1 C,3,2,0,77,6",0.5,1.0,1.0
TiO 1,4807.937,-0.767,0.34230948340248346,69.0,2.9203769764320917,70.0,99.0,99.0,99.0,7.2989999999999995,0.0,0.0,0.006,_          0.0895201          8 wl:PPN2012   8 gf:PPN2012   8 PPN2012   8 PPN2012   8 PPN2012   8 PPN2012   8 PPN2012   8 PPN2012   8 PPN2012    (49)TiO,"8s2.9s1.3p4.1d1 X,3,2,0,70,0","8s2.11s1.3p4.1d1 C,3,2,0,71,2",0.5,1.0,1.0
Dy 1,4807.94,-1.3,0.9380148443799947,8.0,3.5160306607960976,7.0,1.35,1.35,1.36,0.0,0.0,0.0,0.004,E 0.05     Wisconsin REE ex  11 wl:WLN  11 gf:WLN  11 WLN  11 WLN  11 WLN  11 WLN  11 WLN  11 WLN  11 WLN    Dy,4f9.(6H).5d.6s2 7H*,4f9.6s2.6p 4f9.6s2.6p,1.1220184543019633,1.0,1.0