species,wlcent,gflog,excit,j_lo,e_upp,j_up,lande_lower,lande_upper,lande,gamrad,gamqst,gamvw,depth,reference,term_lower,term_upper,error,atom_number,ionization
TiO 1,4807.1132,-1.114,0.611093907614911,6.0,3.1895552240493634,5.0,99.0,99.0,99.0,7.317,0.0,0.0,0.001,_                             6 wl:PPN2012   6 gf:PPN2012   6 PPN2012   6 PPN2012   6 PPN2012   6 PPN2012   6 PPN2012   6 PPN2012   6 PPN2012    (48)TiO,"8s2.9s1.3p4.1d1 X,3,2,0,5,5","8s2.11s1.3p4.1d1 C,3,2,0,4,8",0.5,1.0,1.0
CN 1,4807.1196,-2.847,1.1215978736214198,39.5,3.7000556937015037,39.5,99.0,99.0,99.0,6.17,0.0,0.0,0.001,_                            48 wl:KCN  48 gf:KCN  48 KCN  48 KCN  48 KCN  48 KCN  48 KCN  48 KCN  48 KCN    (12)C(14)N,"3s2.4s2.1p4.5s1 X,2,0,,40,3","3s2.4s2.1p3.5s2 A,2,1,e,40,11",0.5,1.0,1.0
Hf 2,4807.13,-1.66,2.1559686488598913,4.5,4.734419649809114,4.5,1.14,1.33,1.24,0.0,0.0,0.0,0.002,E 0.05     Wisconsin REE ex  11 wl:LDLS  11 gf:LDLS  11 LDLS  11 LDLS  11 LDLS  11 LDLS  11 LDLS  11 LDLS  11 LDLS    Hf+,5d2.(a1G).6s a2G,5d.6s.(a3D).6p z4F*,1.1220184543019633,1.0,2.0
TiO 1,4807.1304,-0.795,0.7677599179918924,77.0,3.3462119852052137,77.0,99.0,99.0,99.0,7.308,0.0,0.0,0.001,_                             6 wl:PPN2012   6 gf:PPN2012   6 PPN2012   6 PPN2012   6 PPN2012   6 PPN2012   6 PPN2012   6 PPN2012   6 PPN2012    (48)TiO,"8s2.9s1.3p4.1d1 X,3,2,-,77,3","8s2.3p4.4p1.1d1 B,3,1,+,77,7",0.5,1.0,1.0
TiO 1,4807.1322,-0.7909999999999999,0.3317190756134986,68.0,2.9102175873071925,69.0,99.0,99.0,99.0,7.3,0.0,0.0,0.006,_          0.0883804          4 wl:PPN2012   4 gf:PPN2012   4 PPN2012   4 PPN2012   4 PPN2012   4 PPN2012   4 PPN2012   4 PPN2012   4 PPN2012    (50)TiO,"8s2.9s1.3p4.1d1 X,3,2,0,69,0","8s2.11s1.3p4.1d1 C,3,2,0,70,2",0.5,1.0,1.0
MgH 1,4807.1398,-2.773,0.39491025031913535,7.5,2.9733572837740394,7.5,99.0,99.0,99.0,7.39,0.0,0.0,0.001,_                            18 wl:KMGH  18 gf:KMGH  18 KMGH  18 KMGH  18 KMGH  18 KMGH  18 KMGH  18 KMGH  18 KMGH    (24)MgH,"4s2.5s1 X,2,0,f,8,2","4s2.2p1 A,2,1,e,7,3",0.5,1.0,1.0
TiO 1,4807.1431,-0.897,0.1788847968593315,52.0,2.757339492537639,51.0,99.0,99.0,99.0,7.314,0.0,0.0,0.008,_          0.0174913          8 wl:PPN2012   8 gf:PPN2012   8 PPN2012   8 PPN2012   8 PPN2012   8 PPN2012   8 PPN2012   8 PPN2012   8 PPN2012    (49)TiO,"8s2.9s1.3p4.1d1 X,3,2,0,51,0","8s2.11s1.3p4.1d1 C,3,2,0,50,2",0.5,1.0,1.0
TiO 1,4807.1522,0.34299999999999997,1.3168919542190831,103.0,3.8953322925273235,102.0,99.0,99.0,99.0,7.244,0.0,0.0,0.002,_                             6 wl:PPN2012   6 gf:PPN2012   6 PPN2012   6 PPN2012   6 PPN2012   6 PPN2012   6 PPN2012   6 PPN2012   6 PPN2012    (48)TiO,"8s2.9s1.3p4.1d1 X,3,2,0,104,5","8s2.11s1.3p4.1d1 C,3,2,0,103,9",0.5,1.0,1.0
Mn 1,4807.1573,-1.17,4.665620446680348,4.5,7.244058057336244,5.5,1.16,1.13,1.07,8.03,-6.17,-7.77,0.057,_          Kurucz MnI 2007   39 wl:K07  39 gf:K07  39 K07  39 K07  39 K07  39 K07  39 K07  39 K07  39 K07    Mn,3d6.(3G).4s b4G,3d6.(3H).4p y4H*,0.5,1.0,1.0
TiO 1,4807.1637,-1.695,0.14893461618955897,4.0,2.727368792483185,4.0,99.0,99.0,99.0,7.324,0.0,0.0,0.001,_                             3 wl:PPN2012   3 gf:PPN2012   3 PPN2012   3 PPN2012   3 PPN2012   3 PPN2012   3 PPN2012   3 PPN2012   3 PPN2012    (46)TiO,"8s2.9s1.3p4.1d1 X,3,2,0,5,1","8s2.11s1.3p4.1d1 C,3,2,0,5,3",0.5,1.0,1.0
TiO 1,4807.1666,0.13699999999999998,1.2516632480090617,38.0,3.8300958992970595,39.0,99.0,99.0,99.0,7.358,0.0,0.0,0.001,_                             6 wl:PPN2012   6 gf:PPN2012   6 PPN2012   6 PPN2012   6 PPN2012   6 PPN2012   6 PPN2012   6 PPN2012   6 PPN2012    (48)TiO,"8s2.9s1.3p4.1d1 a,1,2,0,38,6","8s2.11s1.3p4.1d1 f,1,2,0,39,9",0.5,1.0,1.0
TiO 1,4807.1674,-0.47600000000000003,0.9713334401250554,114.0,3.5463979862982584,113.0,99.0,99.0,99.0,7.244,0.0,0.0,0.001,_          -6.28679           2 wl:PPN2012   2 gf:PPN2012   2 PPN2012   2 PPN2012   2 PPN2012   2 PPN2012   2 PPN2012   2 PPN2012   2 PPN2012    (47)TiO,"8s2.9s1.3p4.1d1 X,3,2,0,113,1","8s2.11s1.3p4.1d1 C,3,2,0,112,4",0.5,1.0,1.0
TiO 1,4807.1679,-0.915,0.19208555554343265,50.0,2.7705619112610385,49.0,99.0,99.0,99.0,7.315,0.0,0.0,0.006999999999999999,_          0.0827505          8 wl:PPN2012   8 gf:PPN2012   8 PPN2012   8 PPN2012   8 PPN2012   8 PPN2012   8 PPN2012   8 PPN2012   8 PPN2012    (49)TiO,"8s2.9s1.3p4.1d1 X,3,2,0,51,0","8s2.11s1.3p4.1d1 C,3,2,0,50,2",0.5,1.0,1.0
TiO 1,4807.1693,-1.131,0.16544043402404102,16.0,2.7439110120780446,17.0,99.0,99.0,99.0,7.327000000000001,0.0,0.0,0.005,_          0.0735403          2 wl:PPN2012   2 gf:PPN2012   2 PPN2012   2 PPN2012   2 PPN2012   2 PPN2012   2 PPN2012   2 PPN2012   2 PPN2012    (47)TiO,"8s2.9s1.3p4.1d1 X,3,2,0,17,1","8s2.11s1.3p4.1d1 C,3,2,0,18,3",0.5,1.0,1.0
TiO 1,4807.1696,-1.1420000000000001,0.5205613285353102,37.0,3.0989923308334815,38.0,99.0,99.0,99.0,7.406000000000001,0.0,0.0,0.001,_                             3 wl:PPN2012   3 gf:PPN2012   3 PPN2012   3 PPN2012   3 PPN2012   3 PPN2012   3 PPN2012   3 PPN2012   3 PPN2012    (46)TiO,"8s2.9s1.3p4.1d1 a,1,2,0,37,0","8s2.11s1.3p4.1d1 f,1,2,0,38,2",0.5,1.0,1.0
TiO 1,4807.1762,-0.485,0.8691257031143839,95.0,3.4474077631961344,94.0,99.0,99.0,99.0,7.267,0.0,0.0,0.002,_          -0.271265          2 wl:PPN2012   2 gf:PPN2012   2 PPN2012   2 PPN2012   2 PPN2012   2 PPN2012   2 PPN2012   2 PPN2012   2 PPN2012    (47)TiO,"8s2.9s1.3p4.1d1 X,3,2,0,96,2","8s2.11s1.3p4.1d1 C,3,2,0,95,5",0.5,1.0,1.0
TiO 1,4807.1783,-0.99,0.17582213921342443,20.0,2.754288737374689,21.0,99.0,99.0,99.0,7.3260000000000005,0.0,0.0,0.006999999999999999,_          0.0748742          3 wl:PPN2012   3 gf:PPN2012   3 PPN2012   3 PPN2012   3 PPN2012   3 PPN2012   3 PPN2012   3 PPN2012   3 PPN2012    (46)TiO,"8s2.9s1.3p4.1d1 X,3,2,0,21,1","8s2.11s1.3p4.1d1 C,3,2,0,22,3",0.5,1.0,1.0
TiO 1,4807.1784,-1.511,0.12784337919426142,7.0,2.706348387659902,6.0,99.0,99.0,99.0,7.332999999999999,0.0,0.0,0.002,_          0.146558           2 wl:PPN2012   2 gf:PPN2012   2 PPN2012   2 PPN2012   2 PPN2012   2 PPN2012   2 PPN2012   2 PPN2012   2 PPN2012    (47)TiO,"8s2.9s1.3p4.1d1 X,3,2,0,6,1","8s2.11s1.3p4.1d1 C,3,2,0,5,3",0.5,1.0,1.0
TiO 1,4807.1814,-0.912,0.6806514476890834,54.0,3.2590761391916034,53.0,99.0,99.0,99.0,7.297999999999999,0.0,0.0,0.001,_                             2 wl:PPN2012   2 gf:PPN2012   2 PPN2012   2 PPN2012   2 PPN2012   2 PPN2012   2 PPN2012   2 PPN2012   2 PPN2012    (47)TiO,"8s2.9s1.3p4.1d1 X,3,2,0,53,4","8s2.11s1.3p4.1d1 C,3,2,0,52,7",0.5,1.0,1.0
Cr 1,4807.1837,-1.485,4.239073272676958,2.0,6.817496749134342,3.0,1.55,1.49,1.43,7.96,-6.27,-7.5,0.065,_      A   Kurucz Cr I 2016  10 wl:K16  10 gf:K16  10 K16  10 K16  10 K16  10 K16  10 K16  10 K16  10 K16    Cr,3d4.(5D).4s.4p.(3P*) z3P*,3d4.4s.5s g5D,0.5,1.0,1.0
TiO 1,4807.1837,-1.209,0.15929153693786804,19.0,2.737748377542792,20.0,99.0,99.0,99.0,7.327000000000001,0.0,0.0,0.004,_          0.0622029          4 wl:PPN2012   4 gf:PPN2012   4 PPN2012   4 PPN2012   4 PPN2012   4 PPN2012   4 PPN2012   4 PPN2012   4 PPN2012    (50)TiO,"8s2.9s1.3p4.1d1 X,3,2,0,19,1","8s2.11s1.3p4.1d1 C,3,2,0,20,3",0.5,1.0,1.0
TiO 1,4807.1868,-1.354,0.13043737657373142,9.0,2.7089273829514786,8.0,99.0,99.0,99.0,7.331,0.0,0.0,0.003,_          0.126964           3 wl:PPN2012   3 gf:PPN2012   3 PPN2012   3 PPN2012   3 PPN2012   3 PPN2012   3 PPN2012   3 PPN2012   3 PPN2012    (46)TiO,"8s2.9s1.3p4.1d1 X,3,2,0,8,1","8s2.11s1.3p4.1d1 C,3,2,0,7,3",0.5,1.0,1.0
MgH 1,4807.1876,-1.3659999999999999,0.3949359150480117,8.5,2.9733572837740394,7.5,99.0,99.0,99.0,7.39,0.0,0.0,0.034,_                            18 wl:KMGH  18 gf:KMGH  18 KMGH  18 KMGH  18 KMGH  18 KMGH  18 KMGH  18 KMGH  18 KMGH    (24)MgH,"4s2.5s1 X,2,0,e,8,2","4s2.2p1 A,2,1,e,7,3",0.5,1.0,1.0
TiO 1,4807.2195,-0.867,0.6963609150232148,54.0,3.2747652235236706,53.0,99.0,99.0,99.0,7.297999999999999,0.0,0.0,0.001,_                             3 wl:PPN2012   3 gf:PPN2012   3 PPN2012   3 PPN2012   3 PPN2012   3 PPN2012   3 PPN2012   3 PPN2012   3 PPN2012    (46)TiO,"8s2.9s1.3p4.1d1 X,3,2,0,54,4","8s2.11s1.3p4.1d1 C,3,2,0,53,7",0.5,1.0,1.0
TiO 1,4807.228,-0.768,0.20066917990900554,51.0,2.7791127294079607,50.0,99.0,99.0,99.0,7.314,0.0,0.0,0.01,_          0.0817041          2 wl:PPN2012   2 gf:PPN2012   2 PPN2012   2 PPN2012   2 PPN2012   2 PPN2012   2 PPN2012   2 PPN2012   2 PPN2012    (47)TiO,"8s2.9s1.3p4.1d1 X,3,2,0,52,0","8s2.11s1.3p4.1d1 C,3,2,0,51,2",0.5,1.0,1.0
Fe 1,4807.2304,-2.33,4.2562227668710255,3.0,6.834621198520522,3.0,1.24,1.07,1.16,8.28,-5.06,-7.41,0.353,_          Kurucz Fe I 2014   5 wl:K14   5 gf:K14   5 K14   5 K14   5 K14   5 K14   5 K14   5 K14   5 K14    Fe,3d7.(4F).4p y5F*,3d7.(4F).4d f3F,0.5,1.0,1.0
TiO 1,4807.2311,-1.228,0.14526449796814697,18.0,2.7236908012652337,19.0,99.0,99.0,99.0,7.327000000000001,0.0,0.0,0.004,_          0.0526443          4 wl:PPN2012   4 gf:PPN2012   4 PPN2012   4 PPN2012   4 PPN2012   4 PPN2012   4 PPN2012   4 PPN2012   4 PPN2012    (50)TiO,"8s2.9s1.3p4.1d1 X,3,2,0,17,1","8s2.11s1.3p4.1d1 C,3,2,0,18,3",0.5,1.0,1.0
Co 1,4807.2317,-3.26,4.14886308263894,2.5,6.727260798279693,2.5,1.19,0.99,1.09,8.07,-5.36,-7.55,0.006999999999999999,"_          Kurucz CoI 2008   12 wl:K08  12 gf:K08  12 K08  12 K08  12 K08  12 K08  12 K08  12 K08  12 K08   hfs:GUKL,P Co",3p6.3d7.(4F).4s.4p.(3P*) z2D*,3p6.3d7.4s.(3F).5s h4F,0.5,1.0,1.0
TiO 1,4807.2318,0.042,0.17462188539297535,24.0,2.753054970625664,25.0,99.0,99.0,99.0,7.325,0.0,0.0,0.071,_          0.0658660          6 wl:PPN2012   6 gf:PPN2012   6 PPN2012   6 PPN2012   6 PPN2012   6 PPN2012   6 PPN2012   6 PPN2012   6 PPN2012    (48)TiO,"8s2.9s1.3p4.1d1 X,3,2,0,24,1","8s2.11s1.3p4.1d1 C,3,2,0,25,3",0.5,1.0,1.0
TiO 1,4807.2327,-0.575,0.6587815775352537,20.0,3.237178794139614,21.0,99.0,99.0,99.0,7.308,0.0,0.0,0.003,_                             6 wl:PPN2012   6 gf:PPN2012   6 PPN2012   6 PPN2012   6 PPN2012   6 PPN2012   6 PPN2012   6 PPN2012   6 PPN2012    (48)TiO,"8s2.9s1.3p4.1d1 X,3,2,0,21,5","8s2.11s1.3p4.1d1 C,3,2,0,22,8",0.5,1.0,1.0
TiO 1,4807.2402,-0.9209999999999999,0.18189535634546164,26.0,2.7603251559969175,27.0,99.0,99.0,99.0,7.324,0.0,0.0,0.008,_          0.0683550          2 wl:PPN2012   2 gf:PPN2012   2 PPN2012   2 PPN2012   2 PPN2012   2 PPN2012   2 PPN2012   2 PPN2012   2 PPN2012    (47)TiO,"8s2.9s1.3p4.1d1 X,3,2,0,26,1","8s2.11s1.3p4.1d1 C,3,2,0,27,3",0.5,1.0,1.0
TiO 1,4807.2402,-0.67,0.12580831497540648,5.0,2.7042918617764653,4.0,99.0,99.0,99.0,7.337999999999999,0.0,0.0,0.017,_          0.168519           6 wl:PPN2012   6 gf:PPN2012   6 PPN2012   6 PPN2012   6 PPN2012   6 PPN2012   6 PPN2012   6 PPN2012   6 PPN2012    (48)TiO,"8s2.9s1.3p4.1d1 X,3,2,0,4,1","8s2.11s1.3p4.1d1 C,3,2,0,3,3",0.5,1.0,1.0
TiO 1,4807.2406,-0.625,0.1379106976541198,6.0,2.7163198167414375,5.0,99.0,99.0,99.0,7.332999999999999,0.0,0.0,0.018000000000000002,_          0.0302078          6 wl:PPN2012   6 gf:PPN2012   6 PPN2012   6 PPN2012   6 PPN2012   6 PPN2012   6 PPN2012   6 PPN2012   6 PPN2012    (48)TiO,"8s2.9s1.3p4.1d1 X,3,2,0,6,1","8s2.11s1.3p4.1d1 C,3,2,0,5,3",0.5,1.0,1.0
TiO 1,4807.2432,-1.146,0.1534346722304162,21.0,2.7318477216167936,22.0,99.0,99.0,99.0,7.3260000000000005,0.0,0.0,0.005,_          0.0400195          8 wl:PPN2012   8 gf:PPN2012   8 PPN2012   8 PPN2012   8 PPN2012   8 PPN2012   8 PPN2012   8 PPN2012   8 PPN2012    (49)TiO,"8s2.9s1.3p4.1d1 X,3,2,0,20,1","8s2.11s1.3p4.1d1 C,3,2,0,21,3",0.5,1.0,1.0
TiO 1,4807.2477,-1.473,0.14023494261515404,8.0,2.718640304981288,7.0,99.0,99.0,99.0,7.331,0.0,0.0,0.002,_          0.0301973          2 wl:PPN2012   2 gf:PPN2012   2 PPN2012   2 PPN2012   2 PPN2012   2 PPN2012   2 PPN2012   2 PPN2012   2 PPN2012    (47)TiO,"8s2.9s1.3p4.1d1 X,3,2,0,8,1","8s2.11s1.3p4.1d1 C,3,2,0,7,3",0.5,1.0,1.0
Co 1,4807.2536,-2.5610000000000004,4.148874834481096,2.5,6.727260798279693,2.5,1.19,0.99,1.09,8.07,-5.36,-7.55,0.006999999999999999,"_          Kurucz CoI 2008   12 wl:K08  12 gf:K08  12 K08  12 K08  12 K08  12 K08  12 K08  12 K08  12 K08   hfs:GUKL,P Co",3p6.3d7.(4F).4s.4p.(3P*) z2D*,3p6.3d7.4s.(3F).5s h4F,0.5,1.0,1.0
TiO 1,4807.2572,-0.75,0.18767220165186627,53.0,2.766064508482007,52.0,99.0,99.0,99.0,7.313,0.0,0.0,0.011000000000000001,_          0.0154440          2 wl:PPN2012   2 gf:PPN2012   2 PPN2012   2 PPN2012   2 PPN2012   2 PPN2012   2 PPN2012   2 PPN2012   2 PPN2012    (47)TiO,"8s2.9s1.3p4.1d1 X,3,2,0,52,0","8s2.11s1.3p4.1d1 C,3,2,0,51,2",0.5,1.0,1.0
Co 1,4807.264,-3.0789999999999997,4.148853357566458,2.5,6.72723376513723,2.5,1.19,0.99,1.09,8.07,-5.36,-7.55,0.006999999999999999,"_          Kurucz CoI 2008   12 wl:K08  12 gf:K08  12 K08  12 K08  12 K08  12 K08  12 K08  12 K08  12 K08   hfs:GUKL,P Co",3p6.3d7.(4F).4s.4p.(3P*) z2D*,3p6.3d7.4s.(3F).5s h4F,0.5,1.0,1.0
TiO 1,4807.2727,0.368,0.34394776099417473,69.0,2.9223715102167938,70.0,99.0,99.0,99.0,7.2989999999999995,0.0,0.0,0.079,_          0.0895201          6 wl:PPN2012   6 gf:PPN2012   6 PPN2012   6 PPN2012   6 PPN2012   6 PPN2012   6 PPN2012   6 PPN2012   6 PPN2012    (48)TiO,"8s2.9s1.3p4.1d1 X,3,2,0,70,0","8s2.11s1.3p4.1d1 C,3,2,0,71,2",0.5,1.0,1.0
TiO 1,4807.2734,-1.545,0.1454148288075795,12.0,2.7237902365916047,12.0,99.0,99.0,99.0,7.329,0.0,0.0,0.002,_                             6 wl:PPN2012   6 gf:PPN2012   6 PPN2012   6 PPN2012   6 PPN2012   6 PPN2012   6 PPN2012   6 PPN2012   6 PPN2012    (48)TiO,"8s2.9s1.3p4.1d1 X,3,2,0,12,1","8s2.11s1.3p4.1d1 C,3,2,0,12,3",0.5,1.0,1.0
TiO 1,4807.2744,-1.784,0.14960721806241464,5.0,2.7279820183238725,5.0,99.0,99.0,99.0,7.329,0.0,0.0,0.001,_                             3 wl:PPN2012   3 gf:PPN2012   3 PPN2012   3 PPN2012   3 PPN2012   3 PPN2012   3 PPN2012   3 PPN2012   3 PPN2012    (46)TiO,"8s2.9s1.3p4.1d1 X,3,2,0,6,1","8s2.11s1.3p4.1d1 C,3,2,0,6,3",0.5,1.0,1.0
Co 1,4807.2821,-2.853,4.14886308263894,2.5,6.72723376513723,2.5,1.19,0.99,1.09,8.07,-5.36,-7.55,0.006999999999999999,"_          Kurucz CoI 2008   12 wl:K08  12 gf:K08  12 K08  12 K08  12 K08  12 K08  12 K08  12 K08  12 K08   hfs:GUKL,P Co",3p6.3d7.(4F).4s.4p.(3P*) z2D*,3p6.3d7.4s.(3F).5s h4F,0.5,1.0,1.0
Fe 1,4807.2845,-4.011,3.3009224176323384,2.0,5.879291836979625,2.0,1.18,1.14,1.16,7.5,-6.14,-7.81,0.243,_          Kurucz Fe I 2014   5 wl:K14   5 gf:K14   5 K14   5 K14   5 K14   5 K14   5 K14   5 K14   5 K14    Fe,3d7.(2D2).4s a3D,3d6.(3P2).4s.4p.(3P*) 1D*,0.5,1.0,1.0
TiO 1,4807.2892,-1.2109999999999999,0.5103192667475374,35.0,3.088686144418777,36.0,99.0,99.0,99.0,7.407,0.0,0.0,0.001,_                             2 wl:PPN2012   2 gf:PPN2012   2 PPN2012   2 PPN2012   2 PPN2012   2 PPN2012   2 PPN2012   2 PPN2012   2 PPN2012    (47)TiO,"8s2.9s1.3p4.1d1 a,1,2,0,35,0","8s2.11s1.3p4.1d1 f,1,2,0,36,2",0.5,1.0,1.0
Co 1,4807.291,-3.048,4.148845622192378,2.5,6.727211530059224,2.5,1.19,0.99,1.09,8.07,-5.36,-7.55,0.006999999999999999,"_          Kurucz CoI 2008   12 wl:K08  12 gf:K08  12 K08  12 K08  12 K08  12 K08  12 K08  12 K08  12 K08   hfs:GUKL,P Co",3p6.3d7.(4F).4s.4p.(3P*) z2D*,3p6.3d7.4s.(3F).5s h4F,0.5,1.0,1.0
TiO 1,4807.2919,-0.7829999999999999,0.7674832720520773,76.0,3.345797506033071,75.0,99.0,99.0,99.0,7.284,0.0,0.0,0.001,_          -0.0955975         4 wl:PPN2012   4 gf:PPN2012   4 PPN2012   4 PPN2012   4 PPN2012   4 PPN2012   4 PPN2012   4 PPN2012   4 PPN2012    (50)TiO,"8s2.9s1.3p4.1d1 X,3,2,0,77,3","8s2.11s1.3p4.1d1 C,3,2,0,76,6",0.5,1.0,1.0
MgH 1,4807.2993,-2.559,0.0014189991400456064,0.5,2.5797804834986953,0.5,99.0,99.0,99.0,7.39,0.0,0.0,0.009000000000000001,_                            18 wl:KMGH  18 gf:KMGH  18 KMGH  18 KMGH  18 KMGH  18 KMGH  18 KMGH  18 KMGH  18 KMGH    (24)MgH,"4s2.5s1 X,2,0,f,1,0","4s2.2p1 A,2,1,e,0,1",0.5,1.0,1.0
TiO 1,4807.3029,-1.129,0.16795870185569628,22.0,2.7463525088946263,23.0,99.0,99.0,99.0,7.3260000000000005,0.0,0.0,0.005,_          0.0639344          8 wl:PPN2012   8 gf:PPN2012   8 PPN2012   8 PPN2012   8 PPN2012   8 PPN2012   8 PPN2012   8 PPN2012   8 PPN2012    (49)TiO,"8s2.9s1.3p4.1d1 X,3,2,0,22,1","8s2.11s1.3p4.1d1 C,3,2,0,23,3",0.5,1.0,1.0
Co 1,4807.304,-3.26,4.148874834481096,2.5,6.72723376513723,2.5,1.19,0.99,1.09,8.07,-5.36,-7.55,0.006999999999999999,"_          Kurucz CoI 2008   12 wl:K08  12 gf:K08  12 K08  12 K08  12 K08  12 K08  12 K08  12 K08  12 K08   hfs:GUKL,P Co",3p6.3d7.(4F).4s.4p.(3P*) z2D*,3p6.3d7.4s.(3F).5s h4F,0.5,1.0,1.0
Co 1,4807.3054,-3.259,4.148853357566458,2.5,6.727211530059224,2.5,1.19,0.99,1.09,8.07,-5.36,-7.55,0.006999999999999999,"_          Kurucz CoI 2008   12 wl:K08  12 gf:K08  12 K08  12 K08  12 K08  12 K08  12 K08  12 K08  12 K08   hfs:GUKL,P Co",3p6.3d7.(4F).4s.4p.(3P*) z2D*,3p6.3d7.4s.(3F).5s h4F,0.5,1.0,1.0
MgH 1,4807.3085,-2.86,0.0014239585079444115,1.5,2.5797804834986953,0.5,99.0,99.0,99.0,7.39,0.0,0.0,0.004,_                            18 wl:KMGH  18 gf:KMGH  18 KMGH  18 KMGH  18 KMGH  18 KMGH  18 KMGH  18 KMGH  18 KMGH    (24)MgH,"4s2.5s1 X,2,0,e,1,0","4s2.2p1 A,2,1,e,0,1",0.5,1.0,1.0
Co 1,4807.313,-3.112,4.148839846760491,2.5,6.72719393335403,2.5,1.19,0.99,1.09,8.07,-5.36,-7.55,0.006999999999999999,"_          Kurucz CoI 2008   12 wl:K08  12 gf:K08  12 K08  12 K08  12 K08  12 K08  12 K08  12 K08  12 K08   hfs:GUKL,P Co",3p6.3d7.(4F).4s.4p.(3P*) z2D*,3p6.3d7.4s.(3F).5s h4F,0.5,1.0,1.0
TiO 1,4807.3141,0.42200000000000004,1.374943215237559,72.0,3.9532967646075705,73.0,99.0,99.0,99.0,7.349,0.0,0.0,0.002,_                             6 wl:PPN2012   6 gf:PPN2012   6 PPN2012   6 PPN2012   6 PPN2012   6 PPN2012   6 PPN2012   6 PPN2012   6 PPN2012    (48)TiO,"8s2.9s1.3p4.1d1 a,1,2,0,72,5","8s2.11s1.3p4.1d1 f,1,2,0,73,8",0.5,1.0,1.0
TiO 1,4807.3233,-0.845,0.18979642290712195,28.0,2.7681832744325736,29.0,99.0,99.0,99.0,7.324,0.0,0.0,0.009000000000000001,_          0.0713460          3 wl:PPN2012   3 gf:PPN2012   3 PPN2012   3 PPN2012   3 PPN2012   3 PPN2012   3 PPN2012   3 PPN2012   3 PPN2012    (46)TiO,"8s2.9s1.3p4.1d1 X,3,2,0,28,1","8s2.11s1.3p4.1d1 C,3,2,0,29,3",0.5,1.0,1.0
Co 1,4807.3236,-3.0789999999999997,4.14886308263894,2.5,6.727211530059224,2.5,1.19,0.99,1.09,8.07,-5.36,-7.55,0.006999999999999999,"_          Kurucz CoI 2008   12 wl:K08  12 gf:K08  12 K08  12 K08  12 K08  12 K08  12 K08  12 K08  12 K08   hfs:GUKL,P Co",3p6.3d7.(4F).4s.4p.(3P*) z2D*,3p6.3d7.4s.(3F).5s h4F,0.5,1.0,1.0
Co 1,4807.3238,-3.9760000000000004,4.148845622192378,2.5,6.72719393335403,2.5,1.19,0.99,1.09,8.07,-5.36,-7.55,0.006999999999999999,"_          Kurucz CoI 2008   12 wl:K08  12 gf:K08  12 K08  12 K08  12 K08  12 K08  12 K08  12 K08  12 K08   hfs:GUKL,P Co",3p6.3d7.(4F).4s.4p.(3P*) z2D*,3p6.3d7.4s.(3F).5s h4F,0.5,1.0,1.0
TiO 1,4807.3282,-1.32,0.143127989878922,10.0,2.721490577696929,9.0,99.0,99.0,99.0,7.33,0.0,0.0,0.003,_          0.0308973          3 wl:PPN2012   3 gf:PPN2012   3 PPN2012   3 PPN2012   3 PPN2012   3 PPN2012   3 PPN2012   3 PPN2012   3 PPN2012    (46)TiO,"8s2.9s1.3p4.1d1 X,3,2,0,10,1","8s2.11s1.3p4.1d1 C,3,2,0,9,3",0.5,1.0,1.0
Co 1,4807.3303,-3.3110000000000004,4.148836008953643,2.5,6.727180847565894,2.5,1.19,0.99,1.09,8.07,-5.36,-7.55,0.006999999999999999,"_          Kurucz CoI 2008   12 wl:K08  12 gf:K08  12 K08  12 K08  12 K08  12 K08  12 K08  12 K08  12 K08   hfs:GUKL,P Co",3p6.3d7.(4F).4s.4p.(3P*) z2D*,3p6.3d7.4s.(3F).5s h4F,0.5,1.0,1.0
TiO 1,4807.3306,-0.5720000000000001,0.7687166420516707,78.0,3.347345696706881,77.0,99.0,99.0,99.0,7.2829999999999995,0.0,0.0,0.002,_          0.530109           3 wl:PPN2012   3 gf:PPN2012   3 PPN2012   3 PPN2012   3 PPN2012   3 PPN2012   3 PPN2012   3 PPN2012   3 PPN2012    (46)TiO,"8s2.9s1.3p4.1d1 X,3,2,0,77,3","8s2.11s1.3p4.1d1 C,3,2,0,76,6",0.5,1.0,1.0
TiO 1,4807.3337,0.52,0.9666458951807838,114.0,3.541621619074919,113.0,99.0,99.0,99.0,7.244,0.0,0.0,0.011000000000000001,_          -6.28679           6 wl:PPN2012   6 gf:PPN2012   6 PPN2012   6 PPN2012   6 PPN2012   6 PPN2012   6 PPN2012   6 PPN2012   6 PPN2012    (48)TiO,"8s2.9s1.3p4.1d1 X,3,2,0,113,1","8s2.11s1.3p4.1d1 C,3,2,0,112,4",0.5,1.0,1.0