species,wlcent,gflog,excit,j_lo,e_upp,j_up,lande_lower,lande_upper,lande,gamrad,gamqst,gamvw,depth,reference,term_lower,term_upper,error,atom_number,ionization
TiO 1,4808.5061,-0.23,1.1372040125253795,68.0,3.7149184233574326,67.0,99.0,99.0,99.0,7.263,0.0,0.0,0.001,_                             6 wl:PPN2012   6 gf:PPN2012   6 PPN2012   6 PPN2012   6 PPN2012   6 PPN2012   6 PPN2012   6 PPN2012   6 PPN2012    (48)TiO,"8s2.9s1.3p4.1d1 X,3,2,0,67,7","8s2.11s1.3p4.1d1 C,3,2,0,66,11",0.5,1.0,1.0
Ni 1,4808.5092,-3.784,3.538776950445004,5.0,6.116489675091971,4.0,1.38,1.22,1.68,7.98,-3.6,-7.51,0.015,_          Kurucz NiI 2008   33 iso:K08  33 gf:K08  33 K08  33 K08  33 K08  33 K08  33 K08  33 K08  33 K08    (64)Ni,3d8.(3F).4s.4p.(3P*) z5F*,3d9.(2D<5/2>).4d 2[7/2],0.5,1.0,1.0
Ni 1,4808.5239,-3.19,3.538774321980018,5.0,6.116479148833606,4.0,1.38,1.22,1.68,7.98,-3.6,-7.51,0.055,_          Kurucz NiI 2008   33 iso:K08  33 gf:K08  33 K08  33 K08  33 K08  33 K08  33 K08  33 K08  33 K08    (62)Ni,3d8.(3F).4s.4p.(3P*) z5F*,3d9.(2D<5/2>).4d 2[7/2],0.5,1.0,1.0
Ti 1,4808.5261,-0.13,2.6953801256307073,5.0,5.27308374983758,6.0,1.21,1.17,1.06,7.66,-5.48,-7.56,0.8240000000000001,_          Kurucz TiI 2016   22 wl:K16  22 gf:K16  22 K16  22 K16  22 K16  22 K16  22 K16  22 K16  22 K16    Ti,3d2.(3F).4s.4p.(3P*) z3G*,3d2.4s.(4F).4d e3H,0.5,1.0,1.0
Ni 1,4808.5308,-3.694,3.538773007747525,5.0,6.116474152270449,4.0,1.38,1.22,1.68,7.98,-3.6,-7.51,0.018000000000000002,_          Kurucz NiI 2008   33 iso:K08  33 gf:K08  33 K08  33 K08  33 K08  33 K08  33 K08  33 K08  33 K08    (61)Ni,3d8.(3F).4s.4p.(3P*) z5F*,3d9.(2D<5/2>).4d 2[7/2],0.5,1.0,1.0
Fe 1,4808.5347,-4.614,3.273984371048004,1.0,5.8516834078395705,2.0,0.73,0.74,0.75,7.54,-6.1,-7.81,0.087,_          Kurucz Fe I 2014   5 wl:K14   5 gf:K14   5 K14   5 K14   5 K14   5 K14   5 K14   5 K14   5 K14    Fe,3d7.(2D2).4s a3D,3d6.(3F2).4s.4p.(3P*) x3F*,0.5,1.0,1.0
Ni 1,4808.5382,-2.332,3.5387715943276734,5.0,6.116468758957859,4.0,1.38,1.22,1.68,7.98,-3.6,-7.51,0.264,_          Kurucz NiI 2008   33 iso:K08  33 gf:K08  33 K08  33 K08  33 K08  33 K08  33 K08  33 K08  33 K08    (60)Ni,3d8.(3F).4s.4p.(3P*) z5F*,3d9.(2D<5/2>).4d 2[7/2],0.5,1.0,1.0
TiO 1,4808.54,-0.374,1.0620175402923846,40.0,3.6397138246347676,40.0,99.0,99.0,99.0,7.457000000000001,0.0,0.0,0.001,_                             6 wl:PPN2012   6 gf:PPN2012   6 PPN2012   6 PPN2012   6 PPN2012   6 PPN2012   6 PPN2012   6 PPN2012   6 PPN2012    (48)TiO,"8s2.9s1.3p4.1d1 X,3,2,-,39,8","8s2.3p4.4p1.1d1 B,3,1,+,39,12",0.5,1.0,1.0
Ni 1,4808.554,-1.9180000000000001,3.538768978261107,5.0,6.1164576871690235,4.0,1.38,1.22,1.68,7.98,-3.6,-7.51,0.431,_          Kurucz NiI 2008   33 iso:K08  33 gf:K08  33 K08  33 K08  33 K08  33 K08  33 K08  33 K08  33 K08    (58)Ni,3d8.(3F).4s.4p.(3P*) z5F*,3d9.(2D<5/2>).4d 2[7/2],0.5,1.0,1.0
TiO 1,4808.56,0.508,0.9601064354741603,111.0,3.537550225998395,110.0,99.0,99.0,99.0,7.247999999999999,0.0,0.0,0.011000000000000001,_          -0.450874          6 wl:PPN2012   6 gf:PPN2012   6 PPN2012   6 PPN2012   6 PPN2012   6 PPN2012   6 PPN2012   6 PPN2012   6 PPN2012    (48)TiO,"8s2.9s1.3p4.1d1 X,3,2,0,112,1","8s2.11s1.3p4.1d1 C,3,2,0,111,4",0.5,1.0,1.0
TiO 1,4808.5755,-0.785,0.3407413064760418,69.0,2.9184665039332747,70.0,99.0,99.0,99.0,7.2989999999999995,0.0,0.0,0.006,_          0.0895201          4 wl:PPN2012   4 gf:PPN2012   4 PPN2012   4 PPN2012   4 PPN2012   4 PPN2012   4 PPN2012   4 PPN2012   4 PPN2012    (50)TiO,"8s2.9s1.3p4.1d1 X,3,2,0,70,0","8s2.11s1.3p4.1d1 C,3,2,0,71,2",0.5,1.0,1.0
TiO 1,4808.5826,0.517,1.4915858124386898,94.0,4.06925918450138,95.0,99.0,99.0,99.0,7.34,0.0,0.0,0.002,_                             6 wl:PPN2012   6 gf:PPN2012   6 PPN2012   6 PPN2012   6 PPN2012   6 PPN2012   6 PPN2012   6 PPN2012   6 PPN2012    (48)TiO,"8s2.9s1.3p4.1d1 a,1,2,0,94,4","8s2.11s1.3p4.1d1 f,1,2,0,95,7",0.5,1.0,1.0
TiO 1,4808.583,-0.748,0.43501598900210575,11.0,3.01268916269008,10.0,99.0,99.0,99.0,7.412999999999999,0.0,0.0,0.004,_                             6 wl:PPN2012   6 gf:PPN2012   6 PPN2012   6 PPN2012   6 PPN2012   6 PPN2012   6 PPN2012   6 PPN2012   6 PPN2012    (48)TiO,"8s2.9s1.3p4.1d1 a,1,2,0,11,0","8s2.11s1.3p4.1d1 f,1,2,0,10,2",0.5,1.0,1.0
TiO 1,4808.5855,-0.452,0.9503749654084089,104.0,3.517221157060206,103.0,99.0,99.0,99.0,7.256,0.0,0.0,0.001,_          -20.2806           2 wl:PPN2012   2 gf:PPN2012   2 PPN2012   2 PPN2012   2 PPN2012   2 PPN2012   2 PPN2012   2 PPN2012   2 PPN2012    (47)TiO,"8s2.9s1.3p4.1d1 X,3,2,0,103,2","8s2.11s1.3p4.1d1 C,3,2,0,102,5",0.5,1.0,1.0
TiO 1,4808.586,-0.061,0.17220057320374174,19.0,2.7499120952039937,20.0,99.0,99.0,99.0,7.3260000000000005,0.0,0.0,0.057,_          0.0744826          6 wl:PPN2012   6 gf:PPN2012   6 PPN2012   6 PPN2012   6 PPN2012   6 PPN2012   6 PPN2012   6 PPN2012   6 PPN2012    (48)TiO,"8s2.9s1.3p4.1d1 X,3,2,0,20,1","8s2.11s1.3p4.1d1 C,3,2,0,21,3",0.5,1.0,1.0
Ti 1,4808.5874,-2.984,3.1123598110679205,2.0,5.690030579462465,3.0,1.93,1.23,0.53,7.76,-4.67,-7.32,0.004,_          Kurucz TiI 2016   22 wl:K16  22 gf:K16  22 K16  22 K16  22 K16  22 K16  22 K16  22 K16  22 K16    Ti,3d2.(3P).4s.4p.(3P*) z5S*,3d2.4s.(4F).6s h5F,0.5,1.0,1.0
TiO 1,4808.5919,0.428,1.384264099234968,73.0,3.961932635913957,74.0,99.0,99.0,99.0,7.348,0.0,0.0,0.002,_                             6 wl:PPN2012   6 gf:PPN2012   6 PPN2012   6 PPN2012   6 PPN2012   6 PPN2012   6 PPN2012   6 PPN2012   6 PPN2012    (48)TiO,"8s2.9s1.3p4.1d1 a,1,2,0,73,5","8s2.11s1.3p4.1d1 f,1,2,0,74,8",0.5,1.0,1.0
TiO 1,4808.5926,-0.609,0.34406542199757384,72.0,2.9217233208324203,73.0,99.0,99.0,99.0,7.296,0.0,0.0,0.008,_          -0.0189029         2 wl:PPN2012   2 gf:PPN2012   2 PPN2012   2 PPN2012   2 PPN2012   2 PPN2012   2 PPN2012   2 PPN2012   2 PPN2012    (47)TiO,"8s2.9s1.3p4.1d1 X,3,2,0,71,0","8s2.11s1.3p4.1d1 C,3,2,0,72,2",0.5,1.0,1.0
Ce 2,4808.5981,-1.79,1.6264150316457266,4.5,4.2040800967671865,4.5,0.99,1.11,1.05,0.0,0.0,0.0,0.006,C 0.048    Ce 2: DREAM data  15 wl:PQWB  15 gf:PQWB  15 PQWB  15 PQWB  15 PQWB  15 PQWB  15 PQWB  15 PQWB  15 PQWB    Ce+,4f2.(3F).5d 4H,4f2.(3F<4>).6p.<1/2> *,0.048,1.0,2.0
TiO 1,4808.5987,-0.995,0.1810745561613699,22.0,2.7587799409438474,23.0,99.0,99.0,99.0,7.325,0.0,0.0,0.006999999999999999,_          0.0757585          2 wl:PPN2012   2 gf:PPN2012   2 PPN2012   2 PPN2012   2 PPN2012   2 PPN2012   2 PPN2012   2 PPN2012   2 PPN2012    (47)TiO,"8s2.9s1.3p4.1d1 X,3,2,0,23,1","8s2.11s1.3p4.1d1 C,3,2,0,24,3",0.5,1.0,1.0
TiO 1,4808.6023,-0.9059999999999999,0.19882593164205664,51.0,2.776532618258607,50.0,99.0,99.0,99.0,7.314,0.0,0.0,0.006999999999999999,_          0.0817041          8 wl:PPN2012   8 gf:PPN2012   8 PPN2012   8 PPN2012   8 PPN2012   8 PPN2012   8 PPN2012   8 PPN2012   8 PPN2012    (49)TiO,"8s2.9s1.3p4.1d1 X,3,2,0,52,0","8s2.11s1.3p4.1d1 C,3,2,0,51,2",0.5,1.0,1.0
TiO 1,4808.6036,-1.074,0.16559268661853435,25.0,2.743270757682309,26.0,99.0,99.0,99.0,7.325,0.0,0.0,0.006,_          0.0296643          8 wl:PPN2012   8 gf:PPN2012   8 PPN2012   8 PPN2012   8 PPN2012   8 PPN2012   8 PPN2012   8 PPN2012   8 PPN2012    (49)TiO,"8s2.9s1.3p4.1d1 X,3,2,0,24,1","8s2.11s1.3p4.1d1 C,3,2,0,25,3",0.5,1.0,1.0
TiO 1,4808.6043,-0.868,0.7100140052549462,54.0,3.2876758219904323,53.0,99.0,99.0,99.0,7.297999999999999,0.0,0.0,0.001,_                             3 wl:PPN2012   3 gf:PPN2012   3 PPN2012   3 PPN2012   3 PPN2012   3 PPN2012   3 PPN2012   3 PPN2012   3 PPN2012    (46)TiO,"8s2.9s1.3p4.1d1 X,3,2,0,55,4","8s2.11s1.3p4.1d1 C,3,2,0,54,7",0.5,1.0,1.0
TiO 1,4808.6216,-0.888,0.1857541413201639,53.0,2.763414842197873,52.0,99.0,99.0,99.0,7.313,0.0,0.0,0.008,_          0.0154440          8 wl:PPN2012   8 gf:PPN2012   8 PPN2012   8 PPN2012   8 PPN2012   8 PPN2012   8 PPN2012   8 PPN2012   8 PPN2012    (49)TiO,"8s2.9s1.3p4.1d1 X,3,2,0,52,0","8s2.11s1.3p4.1d1 C,3,2,0,51,2",0.5,1.0,1.0
TiO 1,4808.6227,-1.298,0.16250127703723394,15.0,2.7401924780275206,16.0,99.0,99.0,99.0,7.327000000000001,0.0,0.0,0.003,_          0.0733120          8 wl:PPN2012   8 gf:PPN2012   8 PPN2012   8 PPN2012   8 PPN2012   8 PPN2012   8 PPN2012   8 PPN2012   8 PPN2012    (49)TiO,"8s2.9s1.3p4.1d1 X,3,2,0,16,1","8s2.11s1.3p4.1d1 C,3,2,0,17,3",0.5,1.0,1.0
TiO 1,4808.624,-1.127,0.15878168912103138,23.0,2.736451130884662,24.0,99.0,99.0,99.0,7.325,0.0,0.0,0.005,_          0.0339744          4 wl:PPN2012   4 gf:PPN2012   4 PPN2012   4 PPN2012   4 PPN2012   4 PPN2012   4 PPN2012   4 PPN2012   4 PPN2012    (50)TiO,"8s2.9s1.3p4.1d1 X,3,2,0,22,1","8s2.11s1.3p4.1d1 C,3,2,0,23,3",0.5,1.0,1.0
TiO 1,4808.6254,0.17600000000000002,0.8143752361898962,71.0,3.3920256339807953,72.0,99.0,99.0,99.0,7.284,0.0,0.0,0.009000000000000001,_                             6 wl:PPN2012   6 gf:PPN2012   6 PPN2012   6 PPN2012   6 PPN2012   6 PPN2012   6 PPN2012   6 PPN2012   6 PPN2012    (48)TiO,"8s2.9s1.3p4.1d1 X,3,2,0,70,4","8s2.11s1.3p4.1d1 C,3,2,0,71,7",0.5,1.0,1.0
TiO 1,4808.6367,0.34700000000000003,1.3032983268084584,142.0,3.880285570322349,143.0,99.0,99.0,99.0,7.192,0.0,0.0,0.002,_          -1.22642           6 wl:PPN2012   6 gf:PPN2012   6 PPN2012   6 PPN2012   6 PPN2012   6 PPN2012   6 PPN2012   6 PPN2012   6 PPN2012    (48)TiO,"8s2.9s1.3p4.1d1 X,3,2,0,141,0","8s2.11s1.3p4.1d1 C,3,2,0,142,3",0.5,1.0,1.0
TiO 1,4808.6406,-1.227,0.13477564563530992,12.0,2.7124725870939392,11.0,99.0,99.0,99.0,7.329,0.0,0.0,0.004,_          0.101776           3 wl:PPN2012   3 gf:PPN2012   3 PPN2012   3 PPN2012   3 PPN2012   3 PPN2012   3 PPN2012   3 PPN2012   3 PPN2012    (46)TiO,"8s2.9s1.3p4.1d1 X,3,2,0,11,1","8s2.11s1.3p4.1d1 C,3,2,0,10,3",0.5,1.0,1.0
TiO 1,4808.642,-0.875,0.19299416133617275,29.0,2.7706748608649336,30.0,99.0,99.0,99.0,7.3229999999999995,0.0,0.0,0.008,_          0.0730126          2 wl:PPN2012   2 gf:PPN2012   2 PPN2012   2 PPN2012   2 PPN2012   2 PPN2012   2 PPN2012   2 PPN2012   2 PPN2012    (47)TiO,"8s2.9s1.3p4.1d1 X,3,2,0,29,1","8s2.11s1.3p4.1d1 C,3,2,0,30,3",0.5,1.0,1.0
TiO 1,4808.6514,-1.321,0.14420532576599918,11.0,2.721858686779218,10.0,99.0,99.0,99.0,7.33,0.0,0.0,0.004,_          0.0314995          2 wl:PPN2012   2 gf:PPN2012   2 PPN2012   2 PPN2012   2 PPN2012   2 PPN2012   2 PPN2012   2 PPN2012   2 PPN2012    (47)TiO,"8s2.9s1.3p4.1d1 X,3,2,0,11,1","8s2.11s1.3p4.1d1 C,3,2,0,10,3",0.5,1.0,1.0
Ce 2,4808.6517,-2.17,0.4170117973443577,2.5,2.9946480981320045,3.5,1.0,1.05,1.13,0.0,0.0,0.0,0.15,C-0.014    Ce 2: DREAM data  15 wl:PQWB  15 gf:PQWB  15 PQWB  15 PQWB  15 PQWB  15 PQWB  15 PQWB  15 PQWB  15 PQWB    Ce+,4f.5d.(3F*).6s 4F*,4f2.(1D).5d 4f2.(1D).5d,0.014,1.0,2.0
TiO 1,4808.6565,0.09300000000000001,0.1730070036193467,27.0,2.7506552564836295,28.0,99.0,99.0,99.0,7.324,0.0,0.0,0.08,_          0.0269500          6 wl:PPN2012   6 gf:PPN2012   6 PPN2012   6 PPN2012   6 PPN2012   6 PPN2012   6 PPN2012   6 PPN2012   6 PPN2012    (48)TiO,"8s2.9s1.3p4.1d1 X,3,2,0,26,1","8s2.11s1.3p4.1d1 C,3,2,0,27,3",0.5,1.0,1.0
TiO 1,4808.6606,0.528,1.5970669802309676,111.0,4.17469856961911,112.0,99.0,99.0,99.0,7.331,0.0,0.0,0.001,_                             6 wl:PPN2012   6 gf:PPN2012   6 PPN2012   6 PPN2012   6 PPN2012   6 PPN2012   6 PPN2012   6 PPN2012   6 PPN2012    (48)TiO,"8s2.9s1.3p4.1d1 a,1,2,0,111,3","8s2.11s1.3p4.1d1 f,1,2,0,112,6",0.5,1.0,1.0
TiO 1,4808.6702,0.5760000000000001,1.5790938590131056,138.0,4.143716902418485,137.0,99.0,99.0,99.0,7.195,0.0,0.0,0.001,_          -24.3818           6 wl:PPN2012   6 gf:PPN2012   6 PPN2012   6 PPN2012   6 PPN2012   6 PPN2012   6 PPN2012   6 PPN2012   6 PPN2012    (48)TiO,"8s2.9s1.3p4.1d1 X,3,2,0,137,3","8s2.11s1.3p4.1d1 C,3,2,0,136,7",0.5,1.0,1.0
TiO 1,4808.6728,0.5870000000000001,1.247314006346007,132.0,3.8179060209701916,133.0,99.0,99.0,99.0,7.21,0.0,0.0,0.004,_          -13.1565           6 wl:PPN2012   6 gf:PPN2012   6 PPN2012   6 PPN2012   6 PPN2012   6 PPN2012   6 PPN2012   6 PPN2012   6 PPN2012    (48)TiO,"8s2.9s1.3p4.1d1 X,3,2,0,131,1","8s2.11s1.3p4.1d1 C,3,2,0,132,4",0.5,1.0,1.0
TiO 1,4808.6767,-1.175,0.5251086225554036,38.0,3.102731570244983,39.0,99.0,99.0,99.0,7.406000000000001,0.0,0.0,0.001,_                             2 wl:PPN2012   2 gf:PPN2012   2 PPN2012   2 PPN2012   2 PPN2012   2 PPN2012   2 PPN2012   2 PPN2012   2 PPN2012    (47)TiO,"8s2.9s1.3p4.1d1 a,1,2,0,38,0","8s2.11s1.3p4.1d1 f,1,2,0,39,2",0.5,1.0,1.0
Fe 1,4808.6793,-1.551,4.7331407528122105,3.0,7.310762299480357,4.0,1.32,1.25,1.13,8.32,-4.17,-7.27,0.379,_          Kurucz Fe I 2014   5 wl:K14   5 gf:K14   5 K14   5 K14   5 K14   5 K14   5 K14   5 K14   5 K14    Fe,3d7.(4F).4p y3D*,3d7.(4F).5d 5G,0.5,1.0,1.0
TiO 1,4808.6801,-1.1079999999999999,0.5362305505989429,40.0,3.1138517129160785,41.0,99.0,99.0,99.0,7.405,0.0,0.0,0.001,_                             3 wl:PPN2012   3 gf:PPN2012   3 PPN2012   3 PPN2012   3 PPN2012   3 PPN2012   3 PPN2012   3 PPN2012   3 PPN2012    (46)TiO,"8s2.9s1.3p4.1d1 a,1,2,0,40,0","8s2.11s1.3p4.1d1 f,1,2,0,41,2",0.5,1.0,1.0
TiO 1,4808.6879,-1.662,0.153048498650556,16.0,2.730665532293916,16.0,99.0,99.0,99.0,7.327999999999999,0.0,0.0,0.001,_                             6 wl:PPN2012   6 gf:PPN2012   6 PPN2012   6 PPN2012   6 PPN2012   6 PPN2012   6 PPN2012   6 PPN2012   6 PPN2012    (48)TiO,"8s2.9s1.3p4.1d1 X,3,2,0,16,1","8s2.11s1.3p4.1d1 C,3,2,0,16,3",0.5,1.0,1.0
TiO 1,4808.6937,-0.899,0.6267893895315678,10.0,3.204403199585794,9.0,99.0,99.0,99.0,7.312,0.0,0.0,0.001,_                             6 wl:PPN2012   6 gf:PPN2012   6 PPN2012   6 PPN2012   6 PPN2012   6 PPN2012   6 PPN2012   6 PPN2012   6 PPN2012    (48)TiO,"8s2.9s1.3p4.1d1 X,3,2,0,10,5","8s2.11s1.3p4.1d1 C,3,2,0,9,8",0.5,1.0,1.0
V 1,4808.6954,-5.569,1.043067168686948,0.5,3.6206800807236315,1.5,0.0,2.32,2.9,8.25,-6.02,-7.74,0.011000000000000001,"_          Kurucz V I 2009   19 wl:K09  19 gf:K09  19 K09  19 K09  19 K09  19 K09  19 K09  19 K09  19 K09   hfs:CPGC,GYDE V",3d4.(5D).4s a4D,3d3.(4P).4s.4p.(3P*) y6P*,0.5,1.0,1.0
TiO 1,4808.6991,-0.501,0.6704577521367436,24.0,3.2480686981560076,25.0,99.0,99.0,99.0,7.307,0.0,0.0,0.003,_                             6 wl:PPN2012   6 gf:PPN2012   6 PPN2012   6 PPN2012   6 PPN2012   6 PPN2012   6 PPN2012   6 PPN2012   6 PPN2012    (48)TiO,"8s2.9s1.3p4.1d1 X,3,2,0,25,5","8s2.11s1.3p4.1d1 C,3,2,0,26,8",0.5,1.0,1.0
TiO 1,4808.7033,-0.759,0.20761168744476505,52.0,2.785263585444454,51.0,99.0,99.0,99.0,7.313,0.0,0.0,0.01,_          0.0807150          2 wl:PPN2012   2 gf:PPN2012   2 PPN2012   2 PPN2012   2 PPN2012   2 PPN2012   2 PPN2012   2 PPN2012   2 PPN2012    (47)TiO,"8s2.9s1.3p4.1d1 X,3,2,0,53,0","8s2.11s1.3p4.1d1 C,3,2,0,52,2",0.5,1.0,1.0
V 1,4808.712,-5.422999999999999,1.043067168686948,0.5,3.620671152621572,1.5,0.0,2.32,2.9,8.25,-6.02,-7.74,0.011000000000000001,"_          Kurucz V I 2009   19 wl:K09  19 gf:K09  19 K09  19 K09  19 K09  19 K09  19 K09  19 K09  19 K09   hfs:CPGC,GYDE V",3d4.(5D).4s a4D,3d3.(4P).4s.4p.(3P*) y6P*,0.5,1.0,1.0
V 1,4808.714,-5.102,1.0430882969580229,0.5,3.6206912407892142,1.5,0.0,2.32,2.9,8.25,-6.02,-7.74,0.011000000000000001,"_          Kurucz V I 2009   19 wl:K09  19 gf:K09  19 K09  19 K09  19 K09  19 K09  19 K09  19 K09  19 K09   hfs:CPGC,GYDE V",3d4.(5D).4s a4D,3d3.(4P).4s.4p.(3P*) y6P*,0.5,1.0,1.0
TiO 1,4808.7184,-0.203,0.5146504687098601,36.0,3.0922510620486356,37.0,99.0,99.0,99.0,7.406000000000001,0.0,0.0,0.011000000000000001,_                             6 wl:PPN2012   6 gf:PPN2012   6 PPN2012   6 PPN2012   6 PPN2012   6 PPN2012   6 PPN2012   6 PPN2012   6 PPN2012    (48)TiO,"8s2.9s1.3p4.1d1 a,1,2,0,36,0","8s2.11s1.3p4.1d1 f,1,2,0,37,2",0.5,1.0,1.0
TiO 1,4808.7228,-0.613,0.7909788354015551,79.0,3.367450602216044,78.0,99.0,99.0,99.0,7.282,0.0,0.0,0.002,_          -2.10263           2 wl:PPN2012   2 gf:PPN2012   2 PPN2012   2 PPN2012   2 PPN2012   2 PPN2012   2 PPN2012   2 PPN2012   2 PPN2012    (47)TiO,"8s2.9s1.3p4.1d1 X,3,2,0,79,3","8s2.11s1.3p4.1d1 C,3,2,0,78,6",0.5,1.0,1.0
V 1,4808.7245,-5.444,1.043067168686948,0.5,3.620664456483034,1.5,0.0,2.32,2.9,8.25,-6.02,-7.74,0.011000000000000001,"_          Kurucz V I 2009   19 wl:K09  19 gf:K09  19 K09  19 K09  19 K09  19 K09  19 K09  19 K09  19 K09   hfs:CPGC,GYDE V",3d4.(5D).4s a4D,3d3.(4P).4s.4p.(3P*) y6P*,0.5,1.0,1.0
V 1,4808.7348,-5.422999999999999,1.0430882969580229,0.5,3.6206800807236315,1.5,0.0,2.32,2.9,8.25,-6.02,-7.74,0.011000000000000001,"_          Kurucz V I 2009   19 wl:K09  19 gf:K09  19 K09  19 K09  19 K09  19 K09  19 K09  19 K09  19 K09   hfs:CPGC,GYDE V",3d4.(5D).4s a4D,3d3.(4P).4s.4p.(3P*) y6P*,0.5,1.0,1.0
TiO 1,4808.7399,-0.631,0.14772960137592706,3.0,2.725318713778017,3.0,99.0,99.0,99.0,7.303,0.0,0.0,0.017,_                             6 wl:PPN2012   6 gf:PPN2012   6 PPN2012   6 PPN2012   6 PPN2012   6 PPN2012   6 PPN2012   6 PPN2012   6 PPN2012    (48)TiO,"8s2.9s1.3p4.1d1 X,3,2,0,4,1","8s2.11s1.3p4.1d1 C,3,2,0,4,3",0.5,1.0,1.0
TiO 1,4808.7501,-1.111,0.17361569163840654,24.0,2.751234634638408,25.0,99.0,99.0,99.0,7.325,0.0,0.0,0.005,_          0.0658660          4 wl:PPN2012   4 gf:PPN2012   4 PPN2012   4 PPN2012   4 PPN2012   4 PPN2012   4 PPN2012   4 PPN2012   4 PPN2012    (50)TiO,"8s2.9s1.3p4.1d1 X,3,2,0,24,1","8s2.11s1.3p4.1d1 C,3,2,0,25,3",0.5,1.0,1.0
V 1,4808.7514,-5.9,1.0430882969580229,0.5,3.620671152621572,1.5,0.0,2.32,2.9,8.25,-6.02,-7.74,0.011000000000000001,"_          Kurucz V I 2009   19 wl:K09  19 gf:K09  19 K09  19 K09  19 K09  19 K09  19 K09  19 K09  19 K09   hfs:CPGC,GYDE V",3d4.(5D).4s a4D,3d3.(4P).4s.4p.(3P*) y6P*,0.5,1.0,1.0
MgH 1,4808.7565,-1.38,0.4067580562451832,8.5,2.9843381921913763,7.5,99.0,99.0,99.0,7.39,0.0,0.0,0.032,_                            18 wl:KMGH  18 gf:KMGH  18 KMGH  18 KMGH  18 KMGH  18 KMGH  18 KMGH  18 KMGH  18 KMGH    (24)MgH,"4s2.5s1 X,2,0,f,9,2","4s2.2p1 A,2,1,f,8,3",0.5,1.0,1.0
TiO 1,4808.7581,0.374,0.3531891587225858,70.0,2.9308171897642614,71.0,99.0,99.0,99.0,7.297999999999999,0.0,0.0,0.077,_          0.0908004          6 wl:PPN2012   6 gf:PPN2012   6 PPN2012   6 PPN2012   6 PPN2012   6 PPN2012   6 PPN2012   6 PPN2012   6 PPN2012    (48)TiO,"8s2.9s1.3p4.1d1 X,3,2,0,71,0","8s2.11s1.3p4.1d1 C,3,2,0,72,2",0.5,1.0,1.0
TiO 1,4808.7595,-0.48200000000000004,0.8838086308871417,62.0,3.461387229429286,62.0,99.0,99.0,99.0,7.42,0.0,0.0,0.001,_                             6 wl:PPN2012   6 gf:PPN2012   6 PPN2012   6 PPN2012   6 PPN2012   6 PPN2012   6 PPN2012   6 PPN2012   6 PPN2012    (48)TiO,"8s2.9s1.3p4.1d1 X,3,2,-,63,5","8s2.3p4.4p1.1d1 B,3,1,+,63,9",0.5,1.0,1.0
TiO 1,4808.7601,-1.649,0.127167528935432,7.0,2.7048243739045996,6.0,99.0,99.0,99.0,7.332999999999999,0.0,0.0,0.002,_          0.146558           8 wl:PPN2012   8 gf:PPN2012   8 PPN2012   8 PPN2012   8 PPN2012   8 PPN2012   8 PPN2012   8 PPN2012   8 PPN2012    (49)TiO,"8s2.9s1.3p4.1d1 X,3,2,0,6,1","8s2.11s1.3p4.1d1 C,3,2,0,5,3",0.5,1.0,1.0
TiO 1,4808.7645,-1.777,0.13726986053265594,6.0,2.7148618865633862,5.0,99.0,99.0,99.0,7.332999999999999,0.0,0.0,0.001,_          0.0302078          4 wl:PPN2012   4 gf:PPN2012   4 PPN2012   4 PPN2012   4 PPN2012   4 PPN2012   4 PPN2012   4 PPN2012   4 PPN2012    (50)TiO,"8s2.9s1.3p4.1d1 X,3,2,0,6,1","8s2.11s1.3p4.1d1 C,3,2,0,5,3",0.5,1.0,1.0
TiO 1,4808.7702,-1.8230000000000002,0.1251745325547787,5.0,2.702837651124338,4.0,99.0,99.0,99.0,7.337999999999999,0.0,0.0,0.001,_          0.168519           4 wl:PPN2012   4 gf:PPN2012   4 PPN2012   4 PPN2012   4 PPN2012   4 PPN2012   4 PPN2012   4 PPN2012   4 PPN2012    (50)TiO,"8s2.9s1.3p4.1d1 X,3,2,0,4,1","8s2.11s1.3p4.1d1 C,3,2,0,3,3",0.5,1.0,1.0
TiO 1,4808.7733,-1.27,0.16461784846750574,16.0,2.7422284225341773,17.0,99.0,99.0,99.0,7.327000000000001,0.0,0.0,0.004,_          0.0735403          8 wl:PPN2012   8 gf:PPN2012   8 PPN2012   8 PPN2012   8 PPN2012   8 PPN2012   8 PPN2012   8 PPN2012   8 PPN2012    (49)TiO,"8s2.9s1.3p4.1d1 X,3,2,0,17,1","8s2.11s1.3p4.1d1 C,3,2,0,18,3",0.5,1.0,1.0